# LAMMPS data file written by OVITO Basic 3.3.4
4 atoms
1 atom types
0.0 2.467724 xlo xhi
0.0 2.137112 ylo yhi
0.0 25.0 zlo zhi
-1.233862 0.0 0.0 xy xz yz

Atoms  

1 1 0.0 0.0 2.1712595
2 1 0.0 0.0 6.5137785
3 1 1.2338632339 0.7123699543 2.1712595
4 1 -1.233862e-06 1.4247420457 6.5137785
