# LAMMPS data file for tBLG written w python 
4 atoms
1 atom types
    0.0  2.468  xlo xhi
    0.0  2.137351  ylo yhi
    0.0  25.0  zlo zhi
  1.234  0.0  0.0 xy xz yz
 
 Atoms  # atomic 
 
1 1 0.0 0.0 0.0 
2 1 2.468 1.424900464359996 0.0 
3 1 0.0 0.0 4.343 
4 1 1.234 0.7124502321799979 4.343 
