LAMMPS data file via write_data, version 3 Mar 2020, timestep = 16

1084 atoms
1 atom types

3.2502726400000004e-01 4.0303380735999973e+01 xlo xhi
2.8148186400000003e-01 3.4903751135999983e+01 ylo yhi
1.9999999999999990e-01 2.4800000000000011e+01 zlo zhi
1.9988975999999994e+01 0.0000000000000000e+00 0.0000000000000000e+00 xy xz yz

Masses

1 12.0107

Atoms # atomic

1 1 3.2502736755232864e-01 2.8148188655124717e-01 2.0000021643850421e-01 0 0 0
2 1 1.8002432451457846e+00 2.6662876227349566e+00 2.0000021676633173e-01 0 0 0
3 1 2.4640904656556470e+00 1.4312989542908483e+00 2.0000021641118634e-01 0 0 0
4 1 3.8655456474378629e+00 1.3887130883915444e+00 2.0000021672274221e-01 0 0 0
5 1 2.5378512350042910e+00 3.8586905071072217e+00 2.0000021637930426e-01 0 0 0
6 1 3.9393064165505329e+00 3.8161046900068767e+00 2.0000021667761653e-01 0 0 0
7 1 4.0130672153879807e+00 6.2434962691240061e+00 2.0000021661577094e-01 0 0 0
8 1 4.6031536087652229e+00 2.5811159952615221e+00 2.0000021636877652e-01 0 0 0
9 1 6.0046087903669871e+00 2.5385301713178654e+00 2.0000021666406567e-01 0 0 0
10 1 4.6769144070862989e+00 5.0085075708713589e+00 2.0000021634156509e-01 0 0 0
11 1 6.0783695885948594e+00 4.9659217538126006e+00 2.0000021663669229e-01 0 0 0
12 1 4.7506752060334572e+00 7.4358991501348850e+00 2.0000021631562495e-01 0 0 0
13 1 6.1521303875715132e+00 7.3933133329516627e+00 2.0000021656480912e-01 0 0 0
14 1 6.2258911864880018e+00 9.8207049120834267e+00 2.0000021646999219e-01 0 0 0
15 1 6.6684560141023015e+00 1.3035415007314235e+00 2.0000021634267773e-01 0 0 0
16 1 8.0699111924907676e+00 1.2609556368852330e+00 2.0000021660414533e-01 0 0 0
17 1 6.7422167800339237e+00 3.7309330554933924e+00 2.0000021631160456e-01 0 0 0
18 1 8.1436719616481845e+00 3.6883472384696425e+00 2.0000021660633840e-01 0 0 0
19 1 6.8159775790779928e+00 6.1583246347065019e+00 2.0000021628319412e-01 0 0 0
20 1 8.2174327606336206e+00 6.1157388175832752e+00 2.0000021656089015e-01 0 0 0
21 1 6.8897383781073120e+00 8.5857162138816605e+00 2.0000021629254630e-01 0 0 0
22 1 8.2911935596419184e+00 8.5431303966976024e+00 2.0000021647693986e-01 0 0 0
23 1 6.9634991771531940e+00 1.1013107793109432e+01 2.0000021634493356e-01 0 0 0
24 1 8.3649543587190465e+00 1.0970521975837343e+01 2.0000021637597007e-01 0 0 0
25 1 8.4387151576776880e+00 1.3397913554997791e+01 2.0000021630371959e-01 0 0 0
26 1 8.8075191537374131e+00 2.4533585437351251e+00 2.0000021628960621e-01 0 0 0
27 1 1.0208974335464951e+01 2.4107727197747209e+00 2.0000021653377570e-01 0 0 0
28 1 8.8812799520567793e+00 4.8807501193160743e+00 2.0000021625924316e-01 0 0 0
29 1 1.0282735133716159e+01 4.8381643022431122e+00 2.0000021651802452e-01 0 0 0
30 1 8.9550407510958614e+00 7.3081416984766232e+00 2.0000021626642722e-01 0 0 0
31 1 1.0356495932696795e+01 7.2655558813335652e+00 2.0000021647065469e-01 0 0 0
32 1 9.0288015501796366e+00 9.7355332776320722e+00 2.0000021629350123e-01 0 0 0
33 1 1.0430256731722462e+01 9.6929474604368480e+00 2.0000021638013307e-01 0 0 0
34 1 9.1025623492569281e+00 1.2162924856800258e+01 2.0000021634068862e-01 0 0 0
35 1 1.0504017530790072e+01 1.2120339039588853e+01 2.0000021630881454e-01 0 0 0
36 1 9.1763231482849683e+00 1.4590316436085207e+01 2.0000021643364135e-01 0 0 0
37 1 1.0577778329844477e+01 1.4547730618788242e+01 2.0000021627633846e-01 0 0 0
38 1 1.0651539128765446e+01 1.6975122197989247e+01 2.0000021626051953e-01 0 0 0
39 1 1.0872821559108324e+01 1.1757840492325100e+00 2.0000021630059411e-01 0 0 0
40 1 1.2274276737540763e+01 1.1331981852631607e+00 2.0000021643762234e-01 0 0 0
41 1 1.0946582325046975e+01 3.6031756039507323e+00 2.0000021627371511e-01 0 0 0
42 1 1.2348037506770300e+01 3.5605897868711347e+00 2.0000021643360352e-01 0 0 0
43 1 1.1020343124105114e+01 6.0305671831021490e+00 2.0000021626052991e-01 0 0 0
44 1 1.2421798305776342e+01 5.9879813659874230e+00 2.0000021643058613e-01 0 0 0
45 1 1.1094103923160997e+01 8.4579587622472676e+00 2.0000021626953388e-01 0 0 0
46 1 1.2495559104764169e+01 8.4153729451078956e+00 2.0000021640163501e-01 0 0 0
47 1 1.1167864722224461e+01 1.0885350341410932e+01 2.0000021629918835e-01 0 0 0
48 1 1.2569319903774932e+01 1.0842764524254944e+01 2.0000021634605072e-01 0 0 0
49 1 1.1241625521275747e+01 1.3312741920601765e+01 2.0000021634910320e-01 0 0 0
50 1 1.2643080702810977e+01 1.3270156103435573e+01 2.0000021631414813e-01 0 0 0
51 1 1.1315386320286137e+01 1.5740133499838610e+01 2.0000021643058638e-01 0 0 0
52 1 1.2716841501875500e+01 1.5697547682607949e+01 2.0000021627374087e-01 0 0 0
53 1 1.1389147119211380e+01 1.8167525079156597e+01 2.0000021647064878e-01 0 0 0
54 1 1.2790602300912763e+01 1.8124939261788992e+01 2.0000021626952544e-01 0 0 0
55 1 1.2864363099825550e+01 2.0552330840966537e+01 2.0000021629349404e-01 0 0 0
56 1 1.3011884698779831e+01 2.3256010921239514e+00 2.0000021630349293e-01 0 0 0
57 1 1.4413339880531801e+01 2.2830152680932998e+00 2.0000021634058332e-01 0 0 0
58 1 1.3085645497102778e+01 4.7529926676985088e+00 2.0000021627631309e-01 0 0 0
59 1 1.4487100678822774e+01 4.7104068506147847e+00 2.0000021634909726e-01 0 0 0
60 1 1.3159406296133728e+01 7.1803842468863612e+00 2.0000021627374465e-01 0 0 0
61 1 1.4560861477796696e+01 7.1377984297845281e+00 2.0000021639000182e-01 0 0 0
62 1 1.3233167095200166e+01 9.6077758260910695e+00 2.0000021631447765e-01 0 0 0
63 1 1.4634622276787692e+01 9.5651900089475088e+00 2.0000021638572127e-01 0 0 0
64 1 1.3306927894244279e+01 1.2035167405274024e+01 2.0000021634363546e-01 0 0 0
65 1 1.4708383075793638e+01 1.1992581588105434e+01 2.0000021635818685e-01 0 0 0
66 1 1.3380688693255863e+01 1.4462558984471549e+01 2.0000021639000856e-01 0 0 0
67 1 1.4782143874859930e+01 1.4419973167267591e+01 2.0000021634656182e-01 0 0 0
68 1 1.3454449492237220e+01 1.6889950563675704e+01 2.0000021640163143e-01 0 0 0
69 1 1.4855904673932400e+01 1.6847364746415312e+01 2.0000021631447637e-01 0 0 0
70 1 1.3528210291212353e+01 1.9317342142886851e+01 2.0000021638012669e-01 0 0 0
71 1 1.4929665472939128e+01 1.9274756325568500e+01 2.0000021629918677e-01 0 0 0
72 1 1.3601971090217450e+01 2.1744733722155505e+01 2.0000021637596846e-01 0 0 0
73 1 1.5003426272010095e+01 2.1702147904755495e+01 2.0000021634069165e-01 0 0 0
74 1 1.5077187071004371e+01 2.4129539483909696e+01 2.0000021643786450e-01 0 0 0
75 1 1.5077187104112273e+01 1.0480265975659204e+00 2.0000021637581619e-01 0 0 0
76 1 1.6478642282556198e+01 1.0054407335906850e+00 2.0000021629327072e-01 0 0 0
77 1 1.5150947870082604e+01 3.4754181523146874e+00 2.0000021630873246e-01 0 0 0
78 1 1.6552403051808383e+01 3.4328323352365770e+00 2.0000021629913364e-01 0 0 0
79 1 1.5224708669097144e+01 5.9028097315068067e+00 2.0000021631414472e-01 0 0 0
80 1 1.6626163850808364e+01 5.8602239144382686e+00 2.0000021634362192e-01 0 0 0
81 1 1.5298469468138297e+01 8.3302013107170172e+00 2.0000021634656240e-01 0 0 0
82 1 1.6699924649808178e+01 8.2876154936067046e+00 2.0000021637632667e-01 0 0 0
83 1 1.5372230267220061e+01 1.0757592889917873e+01 2.0000021636521220e-01 0 0 0
84 1 1.6773685448817247e+01 1.0715007072749916e+01 2.0000021639073984e-01 0 0 0
85 1 1.5445991066236427e+01 1.3184984469120998e+01 2.0000021637632906e-01 0 0 0
86 1 1.6847446247839510e+01 1.3142398651895059e+01 2.0000021638503465e-01 0 0 0
87 1 1.5519751865238913e+01 1.5612376048323407e+01 2.0000021638572069e-01 0 0 0
88 1 1.6921207046921175e+01 1.5569790231059775e+01 2.0000021636521198e-01 0 0 0
89 1 1.5593512664216352e+01 1.8039767627502464e+01 2.0000021634604995e-01 0 0 0
90 1 1.6994967845959287e+01 1.7997181810231169e+01 2.0000021634363560e-01 0 0 0
91 1 1.5667273463230700e+01 2.0467159206670598e+01 2.0000021630881629e-01 0 0 0
92 1 1.7068728644976446e+01 2.0424573389382079e+01 2.0000021634910700e-01 0 0 0
93 1 1.5741034262319367e+01 2.2894550785851262e+01 2.0000021630372625e-01 0 0 0
94 1 1.7142489444096462e+01 2.2851964968550220e+01 2.0000021643365212e-01 0 0 0
95 1 1.5814795061385492e+01 2.5321942365091736e+01 2.0000021630075923e-01 0 0 0
96 1 1.7216250243222394e+01 2.5279356547738708e+01 2.0000021653388877e-01 0 0 0
97 1 1.7290011042156859e+01 2.7706748126908121e+01 2.0000021660440773e-01 0 0 0
98 1 1.7216250243777726e+01 2.1978436405243089e+00 2.0000021637987636e-01 0 0 0
99 1 1.8617705425526800e+01 2.1552578165030827e+00 2.0000021626940520e-01 0 0 0
100 1 1.7290011042082043e+01 4.6252352161478356e+00 2.0000021634599693e-01 0 0 0
101 1 1.8691466223791277e+01 4.5826493990708554e+00 2.0000021631445103e-01 0 0 0
102 1 1.7363771841092010e+01 7.0526267953410775e+00 2.0000021635818427e-01 0 0 0
103 1 1.8765227022822309e+01 7.0100409782535458e+00 2.0000021636520710e-01 0 0 0
104 1 1.7437532640168310e+01 9.4800183745273525e+00 2.0000021638503479e-01 0 0 0
105 1 1.8838987821846533e+01 9.4374325574072060e+00 2.0000021640577328e-01 0 0 0
106 1 1.7511293439211673e+01 1.1907409953736286e+01 2.0000021640577328e-01 0 0 0
107 1 1.8912748620849090e+01 1.1864824136565929e+01 2.0000021642959370e-01 0 0 0
108 1 1.7585054238211377e+01 1.4334801532947305e+01 2.0000021639073975e-01 0 0 0
109 1 1.8986509419888545e+01 1.4292215715724536e+01 2.0000021640577328e-01 0 0 0
110 1 1.7658815037225065e+01 1.6762193112159800e+01 2.0000021635818691e-01 0 0 0
111 1 1.9060270218951672e+01 1.6719607294909746e+01 2.0000021637632931e-01 0 0 0
112 1 1.7732575836237235e+01 1.9189584691324143e+01 2.0000021631414949e-01 0 0 0
113 1 1.9134031017982572e+01 1.9146998874082481e+01 2.0000021639001023e-01 0 0 0
114 1 1.7806336635271649e+01 2.1616976270475163e+01 2.0000021627634731e-01 0 0 0
115 1 1.9207791817039652e+01 2.1574390453250327e+01 2.0000021643059579e-01 0 0 0
116 1 1.7880097434388080e+01 2.4044367849649458e+01 2.0000021627379699e-01 0 0 0
117 1 1.9281552616162667e+01 2.4001782032426249e+01 2.0000021651803324e-01 0 0 0
118 1 1.7953858233458682e+01 2.6471759428848486e+01 2.0000021628976800e-01 0 0 0
119 1 1.9355313415264590e+01 2.6429173611622758e+01 2.0000021660638015e-01 0 0 0
120 1 1.8027619032409472e+01 2.8899151008113851e+01 2.0000021634279358e-01 0 0 0
121 1 1.9429074214330530e+01 2.8856565190818475e+01 2.0000021666419593e-01 0 0 0
122 1 1.9502835013211225e+01 3.1283956769964188e+01 2.0000021672296847e-01 0 0 0
123 1 1.9281552649089601e+01 9.2026914607098531e-01 2.0000021647045041e-01 0 0 0
124 1 2.0683007827541829e+01 8.7768328203811907e-01 2.0000021626028716e-01 0 0 0
125 1 1.9355313415050162e+01 3.3476607008286341e+00 2.0000021640154583e-01 0 0 0
126 1 2.0756768596781310e+01 3.3050748836726327e+00 2.0000021627363812e-01 0 0 0
127 1 1.9429074214072166e+01 5.7750522800194926e+00 2.0000021638570895e-01 0 0 0
128 1 2.0830529395801751e+01 5.7324664628448430e+00 2.0000021634654946e-01 0 0 0
129 1 1.9502835013129278e+01 8.2024438591980502e+00 2.0000021639073920e-01 0 0 0
130 1 2.0904290194852219e+01 8.1598580420277464e+00 2.0000021638503451e-01 0 0 0
131 1 1.9576595812175700e+01 1.0629835438385381e+01 2.0000021642959370e-01 0 0 0
132 1 2.0978050993850040e+01 1.0587249621214905e+01 2.0000021642959370e-01 0 0 0
133 1 1.9650356611196838e+01 1.3057227017576004e+01 2.0000021642959370e-01 0 0 0
134 1 2.1051811792871174e+01 1.3014641200405526e+01 2.0000021642959370e-01 0 0 0
135 1 1.9724117410194630e+01 1.5484618596763166e+01 2.0000021638503479e-01 0 0 0
136 1 2.1125572591917578e+01 1.5442032779592848e+01 2.0000021639073984e-01 0 0 0
137 1 1.9797878209245063e+01 1.7912010175946019e+01 2.0000021634656256e-01 0 0 0
138 1 2.1199333390974658e+01 1.7869424358771344e+01 2.0000021638572141e-01 0 0 0
139 1 1.9871639008265184e+01 2.0339401755117034e+01 2.0000021627374526e-01 0 0 0
140 1 2.1273094189996449e+01 2.0296815937963242e+01 2.0000021640163576e-01 0 0 0
141 1 1.9945399807337580e+01 2.2766793334285577e+01 2.0000021626053296e-01 0 0 0
142 1 2.1346854989096734e+01 2.2724207517160480e+01 2.0000021647066210e-01 0 0 0
143 1 2.0019160606418222e+01 2.5194184913472274e+01 2.0000021625928580e-01 0 0 0
144 1 2.1420615788215798e+01 2.5151599096342036e+01 2.0000021656089836e-01 0 0 0
145 1 2.0092921405453438e+01 2.7621576492655503e+01 2.0000021631160386e-01 0 0 0
146 1 2.1494376587305236e+01 2.7578990675512539e+01 2.0000021663670092e-01 0 0 0
147 1 2.0166682204489163e+01 3.0048968071828913e+01 2.0000021636892695e-01 0 0 0
148 1 2.1568137386354930e+01 3.0006382254704850e+01 2.0000021667769721e-01 0 0 0
149 1 2.0240443002701202e+01 3.2476359654418914e+01 2.0000021641118818e-01 0 0 0
150 1 2.1641898185317295e+01 3.2433773833931475e+01 2.0000021676630428e-01 0 0 0
151 1 2.1715658880515676e+01 3.4861165390557453e+01 2.0000021682506453e-01 0 0 0
152 1 2.1420615788757868e+01 2.0700861891231832e+00 2.0000021643028443e-01 0 0 0
153 1 2.2822070970536817e+01 2.0275003649552041e+00 2.0000021627616976e-01 0 0 0
154 1 2.1494376587064341e+01 4.4974777647083695e+00 2.0000021638993215e-01 0 0 0
155 1 2.2895831768809707e+01 4.4548919474664581e+00 2.0000021631408327e-01 0 0 0
156 1 2.1568137386095191e+01 6.9248693438811468e+00 2.0000021637632542e-01 0 0 0
157 1 2.2969592567821810e+01 6.8822835266311033e+00 2.0000021635818294e-01 0 0 0
158 1 2.1641898185158322e+01 9.3522609230663658e+00 2.0000021640577328e-01 0 0 0
159 1 2.3043353366835486e+01 9.3096751058435938e+00 2.0000021639073984e-01 0 0 0
160 1 2.1715658984197770e+01 1.1779652502224979e+01 2.0000021642959370e-01 0 0 0
161 1 2.3117114165835204e+01 1.1737066685054618e+01 2.0000021640577328e-01 0 0 0
162 1 2.1789419783200323e+01 1.4207044081383707e+01 2.0000021640577328e-01 0 0 0
163 1 2.3190874964878574e+01 1.4164458264263557e+01 2.0000021638503479e-01 0 0 0
164 1 2.1863180582224544e+01 1.6634435660537353e+01 2.0000021636521229e-01 0 0 0
165 1 2.3264635763954860e+01 1.6591849843449811e+01 2.0000021635818721e-01 0 0 0
166 1 2.1936941381255643e+01 1.9061827239719708e+01 2.0000021631447804e-01 0 0 0
167 1 2.3338396562964864e+01 1.9019241422642985e+01 2.0000021634605156e-01 0 0 0
168 1 2.2010702180281690e+01 2.1489218818927277e+01 2.0000021626953457e-01 0 0 0
169 1 2.3412157362019798e+01 2.1446633001849193e+01 2.0000021638013560e-01 0 0 0
170 1 2.2084462979384071e+01 2.3916610398120707e+01 2.0000021626643044e-01 0 0 0
171 1 2.3485918161157059e+01 2.3874024581040281e+01 2.0000021647694649e-01 0 0 0
172 1 2.2158223778463263e+01 2.6344001977272928e+01 2.0000021628320233e-01 0 0 0
173 1 2.3559678960271611e+01 2.6301416160225294e+01 2.0000021656482081e-01 0 0 0
174 1 2.2231984577473046e+01 2.8771393556427697e+01 2.0000021634158408e-01 0 0 0
175 1 2.3633439759321384e+01 2.8728807739415629e+01 2.0000021661578415e-01 0 0 0
176 1 2.2305745376507744e+01 3.1198785135617982e+01 2.0000021637926901e-01 0 0 0
177 1 2.3707200558305527e+01 3.1156199318643914e+01 2.0000021667467355e-01 0 0 0
178 1 2.2379506171459468e+01 3.3626176716288633e+01 2.0000021641586635e-01 0 0 0
179 1 2.3780961356503983e+01 3.3583590894286615e+01 2.0000021672236015e-01 0 0 0
180 1 2.3485918194089873e+01 7.9251169468121629e-01 2.0000021643342028e-01 0 0 0
181 1 2.4887373372553533e+01 7.4992583046866867e-01 2.0000021630348896e-01 0 0 0
182 1 2.3559678960070201e+01 3.2199032494098074e+00 2.0000021634900969e-01 0 0 0
183 1 2.4961134141815794e+01 3.1773174321190392e+00 2.0000021630871281e-01 0 0 0
184 1 2.3633439759087540e+01 5.6472948285596720e+00 2.0000021634362075e-01 0 0 0
185 1 2.5034894940830469e+01 5.6047090112884090e+00 2.0000021634602605e-01 0 0 0
186 1 2.3707200558125692e+01 8.0746864077311375e+00 2.0000021636520751e-01 0 0 0
187 1 2.5108655739807965e+01 8.0321005904674934e+00 2.0000021638572121e-01 0 0 0
188 1 2.3780961357207339e+01 1.0502077986895850e+01 2.0000021638503479e-01 0 0 0
189 1 2.5182416538810443e+01 1.0459492169669915e+01 2.0000021637632942e-01 0 0 0
190 1 2.3854722156229627e+01 1.2929469566041000e+01 2.0000021639073984e-01 0 0 0
191 1 2.5256177337826792e+01 1.2886883748873029e+01 2.0000021636521229e-01 0 0 0
192 1 2.3928482955238678e+01 1.5356861145184197e+01 2.0000021637632942e-01 0 0 0
193 1 2.5329938136908574e+01 1.5314275328073888e+01 2.0000021634656259e-01 0 0 0
194 1 2.4002243754238449e+01 1.7784252724352598e+01 2.0000021634363627e-01 0 0 0
195 1 2.5403698935949691e+01 1.7741666907284010e+01 2.0000021631415013e-01 0 0 0
196 1 2.4076004553238100e+01 2.0211644303553040e+01 2.0000021629919071e-01 0 0 0
197 1 2.5477459734964029e+01 2.0169058486477205e+01 2.0000021630881998e-01 0 0 0
198 1 2.4149765352323197e+01 2.2639035882733005e+01 2.0000021629350753e-01 0 0 0
199 1 2.5551220534074076e+01 2.2596450065665522e+01 2.0000021637598156e-01 0 0 0
200 1 2.4223526151446670e+01 2.5066427461915072e+01 2.0000021629255849e-01 0 0 0
201 1 2.5624981333211487e+01 2.5023841644860177e+01 2.0000021647000685e-01 0 0 0
202 1 2.4297286950494460e+01 2.7493819041089754e+01 2.0000021631563963e-01 0 0 0
203 1 2.5698742132288743e+01 2.7451233224063927e+01 2.0000021655825920e-01 0 0 0
204 1 2.4371047749485751e+01 2.9921210620248555e+01 2.0000021636124085e-01 0 0 0
205 1 2.5772502931274698e+01 2.9878624803285831e+01 2.0000021663030224e-01 0 0 0
206 1 2.4444808548484772e+01 3.2348602199449530e+01 2.0000021638243953e-01 0 0 0
207 1 2.5846263730258354e+01 3.2306016382505902e+01 2.0000021666768625e-01 0 0 0
208 1 2.4518569317650400e+01 3.4775993801126766e+01 2.0000021638024756e-01 0 0 0
209 1 2.5920024496058211e+01 3.4733407937269590e+01 2.0000021665062209e-01 0 0 0
210 1 2.5624981333780894e+01 1.9423287376278653e+00 2.0000021634040652e-01 0 0 0
211 1 2.7026436515532296e+01 1.8997429133328365e+00 2.0000021637581519e-01 0 0 0
212 1 2.5698742132107778e+01 4.3697203132223112e+00 2.0000021629912401e-01 0 0 0
213 1 2.7100197313828062e+01 4.3271344958999691e+00 2.0000021638010329e-01 0 0 0
214 1 2.5772502931114495e+01 6.7971118923755682e+00 2.0000021631446432e-01 0 0 0
215 1 2.7173958112809665e+01 6.7545260751151908e+00 2.0000021640163096e-01 0 0 0
216 1 2.5846263730186944e+01 9.2245034715233043e+00 2.0000021634656259e-01 0 0 0
217 1 2.7247718911791004e+01 9.1819176543193457e+00 2.0000021639001048e-01 0 0 0
218 1 2.5920024529253226e+01 1.1651895050685473e+01 2.0000021635818721e-01 0 0 0
219 1 2.7321479710802588e+01 1.1609309233516889e+01 2.0000021634363627e-01 0 0 0
220 1 2.5993785328259158e+01 1.4079286629843390e+01 2.0000021638572141e-01 0 0 0
221 1 2.7395240509846701e+01 1.4036700812699841e+01 2.0000021631447804e-01 0 0 0
222 1 2.6067546127250154e+01 1.6506678209006381e+01 2.0000021639001048e-01 0 0 0
223 1 2.7469001308913143e+01 1.6464092391904508e+01 2.0000021627374548e-01 0 0 0
224 1 2.6141306926224136e+01 1.8934069788175762e+01 2.0000021634910836e-01 0 0 0
225 1 2.7542762107944107e+01 1.8891483971092281e+01 2.0000021627634870e-01 0 0 0
226 1 2.6215067725276612e+01 2.1361461367337032e+01 2.0000021634069978e-01 0 0 0
227 1 2.7616522907017718e+01 2.1318875550249544e+01 2.0000021630373407e-01 0 0 0
228 1 2.6288828524387785e+01 2.3788852946509628e+01 2.0000021634494788e-01 0 0 0
229 1 2.7690283706132778e+01 2.3746267129425565e+01 2.0000021637307094e-01 0 0 0
230 1 2.6362589323476993e+01 2.6216244525701580e+01 2.0000021634928664e-01 0 0 0
231 1 2.7764044505229180e+01 2.6173658708643412e+01 2.0000021647140698e-01 0 0 0
232 1 2.6436350122500521e+01 2.8643636104896487e+01 2.0000021636904172e-01 0 0 0
233 1 2.7837805304250374e+01 2.8601050287875857e+01 2.0000021655717040e-01 0 0 0
234 1 2.6510110921468371e+01 3.1071027684089877e+01 2.0000021640008492e-01 0 0 0
235 1 2.7911566103222270e+01 3.1028441867113724e+01 2.0000021660815748e-01 0 0 0
236 1 2.6583871719702188e+01 3.3498419266650252e+01 2.0000021636888246e-01 0 0 0
237 1 2.7985326901455910e+01 3.3455833442770690e+01 2.0000021660886627e-01 0 0 0
238 1 2.7690283739110054e+01 6.6475424306580067e-01 2.0000021634469625e-01 0 0 0
239 1 2.9091738917549513e+01 6.2216837877240017e-01 2.0000021646976529e-01 0 0 0
240 1 2.7764044505067254e+01 3.0921457978221918e+00 2.0000021629346093e-01 0 0 0
241 1 2.9165499686770936e+01 3.0495599804471616e+00 2.0000021647685295e-01 0 0 0
242 1 2.7837805304127581e+01 5.5195373770117424e+00 2.0000021626953016e-01 0 0 0
243 1 2.9239260485776700e+01 5.4769515596922504e+00 2.0000021647065172e-01 0 0 0
244 1 2.7911566103171360e+01 7.9469289561829468e+00 2.0000021627373898e-01 0 0 0
245 1 2.9313021284754274e+01 7.9043431389485468e+00 2.0000021643059596e-01 0 0 0
246 1 2.7985326902235901e+01 1.0374320535355320e+01 2.0000021631415013e-01 0 0 0
247 1 2.9386782083771134e+01 1.0331734718189139e+01 2.0000021634910836e-01 0 0 0
248 1 2.8059087701271938e+01 1.2801712114535967e+01 2.0000021634605156e-01 0 0 0
249 1 2.9460542882822413e+01 1.2759126297379970e+01 2.0000021629919071e-01 0 0 0
250 1 2.8132848500282677e+01 1.5229103693683006e+01 2.0000021640163584e-01 0 0 0
251 1 2.9534303681885866e+01 1.5186517876543631e+01 2.0000021626953457e-01 0 0 0
252 1 2.8206609299270475e+01 1.7656495272803426e+01 2.0000021643059637e-01 0 0 0
253 1 2.9608064480941714e+01 1.7613909455688667e+01 2.0000021626053349e-01 0 0 0
254 1 2.8280370098276187e+01 2.0083886851918450e+01 2.0000021643365540e-01 0 0 0
255 1 2.9681825279999696e+01 2.0041301034841165e+01 2.0000021627380016e-01 0 0 0
256 1 2.8354130897338635e+01 2.2511278431060571e+01 2.0000021643787733e-01 0 0 0
257 1 2.9755586079078086e+01 2.2468692613998947e+01 2.0000021630077144e-01 0 0 0
258 1 2.8427891696425100e+01 2.4938670010245303e+01 2.0000021644232813e-01 0 0 0
259 1 2.9829346878153260e+01 2.4896084193198238e+01 2.0000021637096654e-01 0 0 0
260 1 2.8501652495468882e+01 2.7366061589467488e+01 2.0000021644074278e-01 0 0 0
261 1 2.9903107677197418e+01 2.7323475772436637e+01 2.0000021645915919e-01 0 0 0
262 1 2.8575413294448193e+01 2.9793453168712904e+01 2.0000021643857066e-01 0 0 0
263 1 2.9976868476171227e+01 2.9750867351698780e+01 2.0000021652097036e-01 0 0 0
264 1 2.8649174093437331e+01 3.2220844747954693e+01 2.0000021638410959e-01 0 0 0
265 1 3.0050629275161839e+01 3.2178258930952140e+01 2.0000021653897904e-01 0 0 0
266 1 2.8722934862634489e+01 3.4648236349629627e+01 2.0000021632357345e-01 0 0 0
267 1 3.0124390041049811e+01 3.4605650485726230e+01 2.0000021652989575e-01 0 0 0
268 1 2.9829346878760461e+01 1.8145712859683718e+00 2.0000021629227491e-01 0 0 0
269 1 3.1230802060482358e+01 1.7719854616587212e+00 2.0000021656465100e-01 0 0 0
270 1 2.9903107677090407e+01 4.2419628615888723e+00 2.0000021626640682e-01 0 0 0
271 1 3.1304562858720953e+01 4.1993770442606468e+00 2.0000021656088204e-01 0 0 0
272 1 2.9976868476127578e+01 6.6693544407985534e+00 2.0000021626051831e-01 0 0 0
273 1 3.1378323657691521e+01 6.6267686235166270e+00 2.0000021651802932e-01 0 0 0
274 1 3.0050629275195899e+01 9.0967460200125707e+00 2.0000021627634837e-01 0 0 0
275 1 3.1452084456703165e+01 9.0541602027636952e+00 2.0000021643365573e-01 0 0 0
276 1 3.0124390074256791e+01 1.1524137599202042e+01 2.0000021630881998e-01 0 0 0
277 1 3.1525845255783445e+01 1.1481551781986894e+01 2.0000021634069978e-01 0 0 0
278 1 3.0198150873324401e+01 1.3951529178354045e+01 2.0000021638013560e-01 0 0 0
279 1 3.1599606054867245e+01 1.3908943361158833e+01 2.0000021629350753e-01 0 0 0
280 1 3.0271911672350029e+01 1.6378920757457333e+01 2.0000021647066224e-01 0 0 0
281 1 3.1673366853951009e+01 1.6336334940314256e+01 2.0000021626643061e-01 0 0 0
282 1 3.0345672471330779e+01 1.8806312336547432e+01 2.0000021651803440e-01 0 0 0
283 1 3.1747127652990148e+01 1.8763726519474748e+01 2.0000021625928682e-01 0 0 0
284 1 3.0419433270343461e+01 2.1233703915655639e+01 2.0000021653389585e-01 0 0 0
285 1 3.1820888452060274e+01 2.1191118098638352e+01 2.0000021628977072e-01 0 0 0
286 1 3.0493194069381182e+01 2.3661095494810564e+01 2.0000021653013639e-01 0 0 0
287 1 3.1894649251103161e+01 2.3618509677814910e+01 2.0000021632380413e-01 0 0 0
288 1 3.0566954868408729e+01 2.6088487074024229e+01 2.0000021653907477e-01 0 0 0
289 1 3.1968410050133336e+01 2.6045901257023779e+01 2.0000021638428273e-01 0 0 0
290 1 3.0640715667399135e+01 2.8515878653278577e+01 2.0000021652096911e-01 0 0 0
291 1 3.2042170849122179e+01 2.8473292836264388e+01 2.0000021643860391e-01 0 0 0
292 1 3.0714476466372922e+01 3.0943270232540961e+01 2.0000021645909968e-01 0 0 0
293 1 3.2115931648101345e+01 3.0900684415509911e+01 2.0000021644072014e-01 0 0 0
294 1 3.0788237264655667e+01 3.3370661815139606e+01 2.0000021637083995e-01 0 0 0
295 1 3.2189692446394382e+01 3.3328075991149454e+01 2.0000021644215973e-01 0 0 0
296 1 3.1894649284123176e+01 5.3699679146016333e-01 2.0000021631539452e-01 0 0 0
297 1 3.3296104462539816e+01 4.9441092717632701e-01 2.0000021661558376e-01 0 0 0
298 1 3.1968410050028844e+01 2.9643883462077349e+00 2.0000021628318929e-01 0 0 0
299 1 3.3369865231669856e+01 2.9218025288595530e+00 2.0000021663660783e-01 0 0 0
300 1 3.2042170849095299e+01 5.3917799253978398e+00 2.0000021625928499e-01 0 0 0
301 1 3.3443626030657150e+01 5.3491941080926262e+00 2.0000021660635048e-01 0 0 0
302 1 3.2115931648135053e+01 7.8191715045871497e+00 2.0000021627379441e-01 0 0 0
303 1 3.3517386829638035e+01 7.7765856873222896e+00 2.0000021653389616e-01 0 0 0
304 1 3.2189692447215336e+01 1.0246563083790008e+01 2.0000021630373407e-01 0 0 0
305 1 3.3591147628703894e+01 1.0203977266543207e+01 2.0000021643787733e-01 0 0 0
306 1 3.2263453246321340e+01 1.2673954662963476e+01 2.0000021637598156e-01 0 0 0
307 1 3.3664908427834945e+01 1.2631368845739486e+01 2.0000021634494788e-01 0 0 0
308 1 3.2337214045404927e+01 1.5101346242093289e+01 2.0000021647694649e-01 0 0 0
309 1 3.3738669226933069e+01 1.5058760424905490e+01 2.0000021629255849e-01 0 0 0
310 1 3.2410974844413218e+01 1.7528737821207589e+01 2.0000021656089881e-01 0 0 0
311 1 3.3812430025968879e+01 1.7486152004084353e+01 2.0000021628320133e-01 0 0 0
312 1 3.2484735643398338e+01 1.9956129400320005e+01 2.0000021660638101e-01 0 0 0
313 1 3.3886190825012903e+01 1.9913543583298452e+01 2.0000021631158876e-01 0 0 0
314 1 3.2558496442388787e+01 2.2383520979438522e+01 2.0000021660440973e-01 0 0 0
315 1 3.3959951624084610e+01 2.2340935162500070e+01 2.0000021634276974e-01 0 0 0
316 1 3.2632257241363519e+01 2.4810912558624096e+01 2.0000021660903894e-01 0 0 0
317 1 3.4033712423107112e+01 2.4768326741687442e+01 2.0000021636902043e-01 0 0 0
318 1 3.2706018040348027e+01 2.7238304137863643e+01 2.0000021660819187e-01 0 0 0
319 1 3.4107473222102001e+01 2.7195718320887647e+01 2.0000021640014901e-01 0 0 0
320 1 3.2779778839320002e+01 2.9665695717101428e+01 2.0000021655714137e-01 0 0 0
321 1 3.4181234021069855e+01 2.9623109900080792e+01 2.0000021636902182e-01 0 0 0
322 1 3.2853539638341474e+01 3.2093087296335128e+01 2.0000021647126556e-01 0 0 0
323 1 3.4254994820093593e+01 3.2050501479274764e+01 2.0000021634918935e-01 0 0 0
324 1 3.2927300407604804e+01 3.4520478898018972e+01 2.0000021637283191e-01 0 0 0
325 1 3.4328755586043243e+01 3.4477893034027154e+01 2.0000021634470419e-01 0 0 0
326 1 3.4033712423755404e+01 1.6868138344659940e+00 2.0000021634133774e-01 0 0 0
327 1 3.5435167605420418e+01 1.6442280101233115e+00 2.0000021667765100e-01 0 0 0
328 1 3.4107473222082888e+01 4.1142054100382497e+00 2.0000021631158363e-01 0 0 0
329 1 3.5508928403628410e+01 4.0716195926992373e+00 2.0000021666414858e-01 0 0 0
330 1 3.4181234021118513e+01 6.5415969891815688e+00 2.0000021628976272e-01 0 0 0
331 1 3.5582689202601479e+01 6.4990111719227697e+00 2.0000021660442049e-01 0 0 0
332 1 3.4254994820157314e+01 8.9689885683606843e+00 2.0000021630076892e-01 0 0 0
333 1 3.5656450001637474e+01 8.9264027511296611e+00 2.0000021653013703e-01 0 0 0
334 1 3.4328755619271703e+01 1.1396380147540942e+01 2.0000021637307094e-01 0 0 0
335 1 3.5730210800753511e+01 1.1353794330323288e+01 2.0000021644232813e-01 0 0 0
336 1 3.4402516418405007e+01 1.3823771726704370e+01 2.0000021647000685e-01 0 0 0
337 1 3.5803971599892158e+01 1.3781185909520769e+01 2.0000021634928733e-01 0 0 0
338 1 3.4476277217468891e+01 1.6251163305849165e+01 2.0000021656482175e-01 0 0 0
339 1 3.5877732398954720e+01 1.6208577488714045e+01 2.0000021631563758e-01 0 0 0
340 1 3.4550038016452064e+01 1.8678554884977967e+01 2.0000021663669346e-01 0 0 0
341 1 3.5951493197954335e+01 1.8635969067915955e+01 2.0000021634156054e-01 0 0 0
342 1 3.4623798815442022e+01 2.1105946464112769e+01 2.0000021666416778e-01 0 0 0
343 1 3.6025253997034319e+01 2.1063360647113214e+01 2.0000021636883900e-01 0 0 0
344 1 3.4697559614373915e+01 2.3533338043267197e+01 2.0000021665081821e-01 0 0 0
345 1 3.6099014796087339e+01 2.3490752226317731e+01 2.0000021638032106e-01 0 0 0
346 1 3.4771320413312743e+01 2.5960729622470105e+01 2.0000021666779239e-01 0 0 0
347 1 3.6172775595087614e+01 2.5918143805527549e+01 2.0000021638258506e-01 0 0 0
348 1 3.4845081212295725e+01 2.8388121201691433e+01 2.0000021663033121e-01 0 0 0
349 1 3.6246536394084735e+01 2.8345535384728446e+01 2.0000021636125770e-01 0 0 0
350 1 3.4918842011281598e+01 3.0815512780913650e+01 2.0000021655821598e-01 0 0 0
351 1 3.6320297193075803e+01 3.0772926963887549e+01 2.0000021631557102e-01 0 0 0
352 1 3.4992602809597436e+01 3.3242904363477699e+01 2.0000021646991217e-01 0 0 0
353 1 3.6394057991372783e+01 3.3200318539479689e+01 2.0000021629239678e-01 0 0 0
354 1 3.6099014829137154e+01 4.0923933996088768e-01 2.0000021637933993e-01 0 0 0
355 1 3.7500470007544322e+01 3.6665347569787565e-01 2.0000021676691623e-01 0 0 0
356 1 3.6172775595061459e+01 2.8366308946764978e+00 2.0000021636905277e-01 0 0 0
357 1 3.7574230776597631e+01 2.7940450773579713e+00 2.0000021672311427e-01 0 0 0
358 1 3.6246536394139753e+01 5.2640224738395425e+00 2.0000021634280657e-01 0 0 0
359 1 3.7647991575574274e+01 5.2214366565984349e+00 2.0000021665087350e-01 0 0 0
360 1 3.6320297193139325e+01 7.6914140529952491e+00 2.0000021632380732e-01 0 0 0
361 1 3.7721752374595994e+01 7.6488282357999982e+00 2.0000021660904732e-01 0 0 0
362 1 3.6394057992213881e+01 1.0118805632157818e+01 2.0000021637096654e-01 0 0 0
363 1 3.7795513173682693e+01 1.0076219814975184e+01 2.0000021653907424e-01 0 0 0
364 1 3.6467818791354986e+01 1.2546197211328943e+01 2.0000021647140642e-01 0 0 0
365 1 3.7869273972814234e+01 1.2503611394159005e+01 2.0000021644074256e-01 0 0 0
366 1 3.6541579590466526e+01 1.4973588790501918e+01 2.0000021655826128e-01 0 0 0
367 1 3.7943034771919194e+01 1.4931002973360442e+01 2.0000021636905094e-01 0 0 0