LAMMPS data file via write_data, version 3 Mar 2020, timestep = 16

676 atoms
1 atom types

2.5667200000000001e-01 3.1827328000000023e+01 xlo xhi
2.2228447200000009e-01 2.7563274527999987e+01 ylo yhi
1.9999999999999990e-01 2.4800000000000011e+01 zlo zhi
1.5785327999999994e+01 0.0000000000000000e+00 0.0000000000000000e+00 xy xz yz

Masses

1 12.0107

Atoms # atomic

1 1 3.1827328000012649e+01 2.2228447202981688e-01 2.0000034706801390e-01 -1 0 0
2 1 1.7511409227726271e+00 2.5950725685239209e+00 2.0000034754061372e-01 0 0 0
3 1 2.4049710768934700e+00 1.3547515180677416e+00 2.0000034700121999e-01 0 0 0
4 1 3.8060356921532428e+00 1.3008245161817160e+00 2.0000034747065004e-01 0 0 0
5 1 2.4983753846524648e+00 3.7814666165997646e+00 2.0000034694780358e-01 0 0 0
6 1 3.8994399997355318e+00 3.7275396145979207e+00 2.0000034740981182e-01 0 0 0
7 1 3.9928443073444853e+00 6.1542547130461696e+00 2.0000034727444962e-01 0 0 0
8 1 4.5532701538084099e+00 2.4872185640036895e+00 2.0000034692150098e-01 0 0 0
9 1 5.9543347690977626e+00 2.4332915620994116e+00 2.0000034737503708e-01 0 0 0
10 1 4.6466744615296873e+00 4.9139336626039736e+00 2.0000034685389437e-01 0 0 0
11 1 6.0477390766932437e+00 4.8600066605063192e+00 2.0000034728881394e-01 0 0 0
12 1 4.7400787692176118e+00 7.3406487611498319e+00 2.0000034686544468e-01 0 0 0
13 1 6.1411433843629446e+00 7.2867217589223277e+00 2.0000034710870898e-01 0 0 0
14 1 6.2345476922066538e+00 9.7134368573904233e+00 2.0000034690897170e-01 0 0 0
15 1 6.6081649229935442e+00 1.1929705114988356e+00 2.0000034686556822e-01 0 0 0
16 1 8.0092295384389942e+00 1.1390435096101643e+00 2.0000034722095336e-01 0 0 0
17 1 6.7015692307279515e+00 3.6196856100017358e+00 2.0000034678863227e-01 0 0 0
18 1 8.1026338461153244e+00 3.5657586079916443e+00 2.0000034720386281e-01 0 0 0
19 1 6.7949735384385885e+00 6.0464007085099007e+00 2.0000034680241230e-01 0 0 0
20 1 8.1960381537064304e+00 5.9924737063430511e+00 2.0000034710347986e-01 0 0 0
21 1 6.8883778462292220e+00 8.4731158069927623e+00 2.0000034686137938e-01 0 0 0
22 1 8.2894424614145255e+00 8.4191888047467280e+00 2.0000034692188032e-01 0 0 0
23 1 6.9817821540427243e+00 1.0899830905574754e+01 2.0000034702765931e-01 0 0 0
24 1 8.3828467691557051e+00 1.0845903903268692e+01 2.0000034682426943e-01 0 0 0
25 1 8.4762510769200805e+00 1.3272619001865618e+01 2.0000034678486234e-01 0 0 0
26 1 8.7564639999551019e+00 2.3254375574340642e+00 2.0000034682008985e-01 0 0 0
27 1 1.0157528615459247e+01 2.2715105553923589e+00 2.0000034702766123e-01 0 0 0
28 1 8.8498683077111657e+00 4.7521526559141076e+00 2.0000034678486259e-01 0 0 0
29 1 1.0250932923121484e+01 4.6982256538190130e+00 2.0000034702587977e-01 0 0 0
30 1 8.9432726154559372e+00 7.1788677543875155e+00 2.0000034681220880e-01 0 0 0
31 1 1.0344337230711504e+01 7.1249407522678823e+00 2.0000034699338795e-01 0 0 0
32 1 9.0366769231815756e+00 9.6055828529119900e+00 2.0000034688470822e-01 0 0 0
33 1 1.0437741538365094e+01 9.5516558507736793e+00 2.0000034690789917e-01 0 0 0
34 1 9.1300812308609594e+00 1.2032297951529261e+01 2.0000034702587940e-01 0 0 0
35 1 1.0531145846104229e+01 1.1978370949287035e+01 2.0000034684208265e-01 0 0 0
36 1 9.2234855384377639e+00 1.4459013050208489e+01 2.0000034710347975e-01 0 0 0
37 1 1.0624550153817703e+01 1.4405086047772445e+01 2.0000034681220877e-01 0 0 0
38 1 1.0717954461559030e+01 1.6831801146329166e+01 2.0000034686137938e-01 0 0 0
39 1 1.0811358769179602e+01 1.0311895047912938e+00 2.0000034690897489e-01 0 0 0
40 1 1.2212423384657587e+01 9.7726250273809412e-01 2.0000034686138271e-01 0 0 0
41 1 1.0904763076961169e+01 3.4579046032687932e+00 2.0000034682427029e-01 0 0 0
42 1 1.2305827692431610e+01 3.4039776012371368e+00 2.0000034688470913e-01 0 0 0
43 1 1.0998167384634833e+01 5.8846197018420474e+00 2.0000034684208287e-01 0 0 0
44 1 1.2399232000019495e+01 5.8306926997840263e+00 2.0000034697230523e-01 0 0 0
45 1 1.1091571692398842e+01 8.3113348004351959e+00 2.0000034691588647e-01 0 0 0
46 1 1.2492636307647299e+01 8.2574077982649587e+00 2.0000034697497310e-01 0 0 0
47 1 1.1184976000064371e+01 1.0738049898991434e+01 2.0000034697230504e-01 0 0 0
48 1 1.2586040615327631e+01 1.0684122896738616e+01 2.0000034696173324e-01 0 0 0
49 1 1.1278380307659928e+01 1.3164764997557853e+01 2.0000034699338784e-01 0 0 0
50 1 1.2679444923115161e+01 1.3110837995237073e+01 2.0000034691588647e-01 0 0 0
51 1 1.1371784615256669e+01 1.5591480096112216e+01 2.0000034692188032e-01 0 0 0
52 1 1.2772849230749959e+01 1.5537553093721387e+01 2.0000034688470822e-01 0 0 0
53 1 1.1465188923040712e+01 1.8018195194671833e+01 2.0000034690897170e-01 0 0 0
54 1 1.2866253538585033e+01 1.7964268192230772e+01 2.0000034702765931e-01 0 0 0
55 1 1.2959657846469351e+01 2.0390983290748856e+01 2.0000034722095034e-01 0 0 0
56 1 1.2959657846156427e+01 2.1636565506828833e+00 2.0000034692188248e-01 0 0 0
57 1 1.4360722461639812e+01 2.1097295486634406e+00 2.0000034681221096e-01 0 0 0
58 1 1.3053062153825095e+01 4.5903716492603790e+00 2.0000034690789958e-01 0 0 0
59 1 1.4454126769283690e+01 4.5364446472446511e+00 2.0000034691588683e-01 0 0 0
60 1 1.3146466461551995e+01 7.0170867478190644e+00 2.0000034696173324e-01 0 0 0
61 1 1.4547531076968907e+01 6.9631597457391718e+00 2.0000034699626523e-01 0 0 0
62 1 1.3239870769284961e+01 9.4438018464041509e+00 2.0000034699626515e-01 0 0 0
63 1 1.4640935384598786e+01 9.3898748442176903e+00 2.0000034704803163e-01 0 0 0
64 1 1.3333275076910031e+01 1.1870516945003329e+01 2.0000034697497310e-01 0 0 0
65 1 1.4734339692316057e+01 1.1816589942711516e+01 2.0000034699626515e-01 0 0 0
66 1 1.3426679384540009e+01 1.4297232043559829e+01 2.0000034690789917e-01 0 0 0
67 1 1.4827744000044889e+01 1.4243305041253940e+01 2.0000034697230504e-01 0 0 0
68 1 1.3520083692194534e+01 1.6723947142046445e+01 2.0000034682426943e-01 0 0 0
69 1 1.4921148307739481e+01 1.6670020139756780e+01 2.0000034702587940e-01 0 0 0
70 1 1.3613488000053662e+01 1.9150662240577393e+01 2.0000034682008808e-01 0 0 0
71 1 1.5014552615607332e+01 1.9096735238284474e+01 2.0000034720386209e-01 0 0 0
72 1 1.3706892307792288e+01 2.1577377339145610e+01 2.0000034686556550e-01 0 0 0
73 1 1.5107956923423901e+01 2.1523450336856705e+01 2.0000034737503558e-01 0 0 0
74 1 1.5201361231153014e+01 2.3950165435376942e+01 2.0000034747064807e-01 0 0 0
75 1 1.5014552615282312e+01 8.6940849820726984e-01 2.0000034710348311e-01 0 0 0
76 1 1.6415617230778473e+01 8.1548149612299003e-01 2.0000034678486572e-01 0 0 0
77 1 1.5107956923051573e+01 3.2961235967565563e+00 2.0000034699338892e-01 0 0 0
78 1 1.6509021538530611e+01 3.2421965946015483e+00 2.0000034684208384e-01 0 0 0
79 1 1.5201361230737273e+01 5.7228386953081616e+00 2.0000034697497335e-01 0 0 0
80 1 1.6602425846224371e+01 5.6689116931269758e+00 2.0000034696173338e-01 0 0 0
81 1 1.5294765538469234e+01 8.1495537938511848e+00 2.0000034704803163e-01 0 0 0
82 1 1.6695830153870453e+01 8.0956267916800275e+00 2.0000034704803163e-01 0 0 0
83 1 1.5388169846129559e+01 1.0576268892413033e+01 2.0000034704803163e-01 0 0 0
84 1 1.6789234461530775e+01 1.0522341890241867e+01 2.0000034704803163e-01 0 0 0
85 1 1.5481574153775643e+01 1.3002983990966088e+01 2.0000034696173324e-01 0 0 0
86 1 1.6882638769262741e+01 1.2949056988784903e+01 2.0000034697497310e-01 0 0 0
87 1 1.5574978461469405e+01 1.5429699089491507e+01 2.0000034684208265e-01 0 0 0
88 1 1.6976043076948450e+01 1.5375772087336507e+01 2.0000034699338784e-01 0 0 0
89 1 1.5668382769208922e+01 1.7856414187998055e+01 2.0000034678486234e-01 0 0 0
90 1 1.7069447384731369e+01 1.7802487185911950e+01 2.0000034710347975e-01 0 0 0
91 1 1.5761787076991711e+01 2.0283129286548366e+01 2.0000034678863171e-01 0 0 0
92 1 1.7162851692594614e+01 2.0229202284450398e+01 2.0000034728881377e-01 0 0 0
93 1 1.5855191384666112e+01 2.2709844385086033e+01 2.0000034692149993e-01 0 0 0
94 1 1.7256256000368083e+01 2.2655917382976654e+01 2.0000034740981160e-01 0 0 0
95 1 1.5948595692378774e+01 2.5136559483610231e+01 2.0000034700121919e-01 0 0 0
96 1 1.7349660307999905e+01 2.5082632481592452e+01 2.0000034754061438e-01 0 0 0
97 1 1.7443064615371902e+01 2.7509347580119144e+01 2.0000034766942801e-01 0 0 0
98 1 1.7162851692259110e+01 2.0018755443381333e+00 2.0000034702588185e-01 0 0 0
99 1 1.8563916307807020e+01 1.9479485420484770e+00 2.0000034682427198e-01 0 0 0
100 1 1.7256255999955101e+01 4.4285906428391204e+00 2.0000034697230548e-01 0 0 0
101 1 1.8657320615459973e+01 4.3746636405332362e+00 2.0000034690789961e-01 0 0 0
102 1 1.7349660307683955e+01 6.8553057413815477e+00 2.0000034699626523e-01 0 0 0
103 1 1.8750724923089997e+01 6.8013787390897393e+00 2.0000034697497321e-01 0 0 0
104 1 1.7443064615401205e+01 9.2820208398753721e+00 2.0000034704803163e-01 0 0 0
105 1 1.8844129230715055e+01 9.2280938376889203e+00 2.0000034699626515e-01 0 0 0
106 1 1.7536468923031087e+01 1.1708735938353897e+01 2.0000034699626515e-01 0 0 0
107 1 1.8937533538448022e+01 1.1654808936274000e+01 2.0000034696173324e-01 0 0 0
108 1 1.7629873230716321e+01 1.4135451036848412e+01 2.0000034691588647e-01 0 0 0
109 1 1.9030937846174915e+01 1.4081524034832681e+01 2.0000034690789917e-01 0 0 0
110 1 1.7723277538361764e+01 1.6562166135431465e+01 2.0000034681220877e-01 0 0 0
111 1 1.9124342153842150e+01 1.6508239133412030e+01 2.0000034692188032e-01 0 0 0
112 1 1.7816681846191692e+01 1.8988881233993954e+01 2.0000034680241219e-01 0 0 0
113 1 1.9217746461735274e+01 1.8934954231977542e+01 2.0000034710870895e-01 0 0 0
114 1 1.7910086153942892e+01 2.1415596332476699e+01 2.0000034685389428e-01 0 0 0
115 1 1.9311150769567057e+01 2.1361669330540277e+01 2.0000034727444971e-01 0 0 0
116 1 1.8003490461593159e+01 2.3842311430981130e+01 2.0000034694780397e-01 0 0 0
117 1 1.9404555077192470e+01 2.3788384429139690e+01 2.0000034739479669e-01 0 0 0
118 1 1.8096894769234325e+01 2.6269026529581165e+01 2.0000034701137451e-01 0 0 0
119 1 1.9497959384756044e+01 2.6215099527761911e+01 2.0000034747408357e-01 0 0 0
120 1 1.9217746461428639e+01 7.0762749188846685e-01 2.0000034702766284e-01 0 0 0
121 1 2.0618811076946677e+01 6.5370048944919945e-01 2.0000034690897531e-01 0 0 0
122 1 1.9311150769250034e+01 3.1343425903716811e+00 2.0000034688470952e-01 0 0 0
123 1 2.0712215384743374e+01 3.0804155879808528e+00 2.0000034692188173e-01 0 0 0
124 1 1.9404555076884854e+01 5.5610576888559882e+00 2.0000034691588664e-01 0 0 0
125 1 2.0805619692340088e+01 5.5071306865352136e+00 2.0000034699338809e-01 0 0 0
126 1 1.9497959384672384e+01 7.9877727873544444e+00 2.0000034696173324e-01 0 0 0
127 1 2.0899023999935643e+01 7.9338457851016351e+00 2.0000034697230509e-01 0 0 0
128 1 1.9591363692352729e+01 1.0414487885828112e+01 2.0000034697497310e-01 0 0 0
129 1 2.0992428307601166e+01 1.0360560883657874e+01 2.0000034691588647e-01 0 0 0
130 1 1.9684767999980515e+01 1.2841202984309037e+01 2.0000034697230504e-01 0 0 0
131 1 2.1085832615365199e+01 1.2787275982251016e+01 2.0000034684208265e-01 0 0 0
132 1 1.9778172307568397e+01 1.5267918082855934e+01 2.0000034688470822e-01 0 0 0
133 1 2.1179236923038843e+01 1.5213991080824272e+01 2.0000034682426943e-01 0 0 0
134 1 1.9871576615329815e+01 1.7694633181382937e+01 2.0000034686137938e-01 0 0 0
135 1 2.1272641230834047e+01 1.7640706179327942e+01 2.0000034690897170e-01 0 0 0
136 1 1.9964980923186907e+01 2.0121348279923097e+01 2.0000034686544468e-01 0 0 0
137 1 2.1366045538710821e+01 2.0067421277897836e+01 2.0000034709565195e-01 0 0 0
138 1 2.0058385230870734e+01 2.2548063378451676e+01 2.0000034692481714e-01 0 0 0
139 1 2.1459449846410322e+01 2.2494136376522992e+01 2.0000034727997809e-01 0 0 0
140 1 2.0151789538444611e+01 2.4974778476990796e+01 2.0000034699466193e-01 0 0 0
141 1 2.1552854153979879e+01 2.4920851475162273e+01 2.0000034738163808e-01 0 0 0
142 1 2.0245193846078649e+01 2.7401493575541398e+01 2.0000034694978916e-01 0 0 0
143 1 2.1646258461526386e+01 2.7347566573755831e+01 2.0000034735205546e-01 0 0 0
144 1 2.1366045538439558e+01 1.8400945377657392e+00 2.0000034686138221e-01 0 0 0
145 1 2.2767110153903339e+01 1.7861675352415662e+00 2.0000034710871192e-01 0 0 0
146 1 2.1459449846182302e+01 4.2668096363206161e+00 2.0000034681220935e-01 0 0 0
147 1 2.2860514461562232e+01 4.2128826338845746e+00 2.0000034710348044e-01 0 0 0
148 1 2.1552854153895758e+01 6.6935247348060347e+00 2.0000034684208282e-01 0 0 0
149 1 2.2953918769139058e+01 6.6395977325638018e+00 2.0000034702587949e-01 0 0 0
150 1 2.1646258461634922e+01 9.1202398333193866e+00 2.0000034690789917e-01 0 0 0
151 1 2.3047323076818444e+01 9.0663128311810866e+00 2.0000034688470822e-01 0 0 0
152 1 2.1739662769288515e+01 1.1546954931825185e+01 2.0000034699338784e-01 0 0 0
153 1 2.3140727384544050e+01 1.1493027929705546e+01 2.0000034681220877e-01 0 0 0
154 1 2.1833067076878507e+01 1.3973670030274047e+01 2.0000034702587940e-01 0 0 0
155 1 2.3234131692288855e+01 1.3919743028178958e+01 2.0000034678486234e-01 0 0 0
156 1 2.1926471384542317e+01 1.6400385128702538e+01 2.0000034702765931e-01 0 0 0
157 1 2.3327536000043459e+01 1.6346458126660846e+01 2.0000034682008808e-01 0 0 0
158 1 2.2019875692337855e+01 1.8827100227196489e+01 2.0000034703454150e-01 0 0 0
159 1 2.3420940307816352e+01 1.8773173225176542e+01 2.0000034690226914e-01 0 0 0
160 1 2.2113280000091351e+01 2.1253815325788516e+01 2.0000034704024083e-01 0 0 0
161 1 2.3514344615566294e+01 2.1199888323806316e+01 2.0000034707949027e-01 0 0 0
162 1 2.2206684307686722e+01 2.3680530424434217e+01 2.0000034704716427e-01 0 0 0
163 1 2.3607748923143525e+01 2.3626603422501720e+01 2.0000034721055890e-01 0 0 0
164 1 2.2300088615287358e+01 2.6107245523058335e+01 2.0000034694946631e-01 0 0 0
165 1 2.3701153230760539e+01 2.6053318521171281e+01 2.0000034723512020e-01 0 0 0
166 1 2.3420940307609158e+01 5.4584648509282374e-01 2.0000034686544815e-01 0 0 0
167 1 2.4822004923075866e+01 4.9191948258112461e-01 2.0000034727445318e-01 0 0 0
168 1 2.3514344615369708e+01 2.9725615836357400e+00 2.0000034680241391e-01 0 0 0
169 1 2.4915409230712143e+01 2.9186345811828658e+00 2.0000034728881544e-01 0 0 0
170 1 2.3607748923079939e+01 5.3992766822274447e+00 2.0000034678486256e-01 0 0 0
171 1 2.5008813538277366e+01 5.3453496798634932e+00 2.0000034720386242e-01 0 0 0
172 1 2.3701153230844319e+01 7.8259917808243715e+00 2.0000034682426943e-01 0 0 0
173 1 2.5102217845957270e+01 7.7720647785183123e+00 2.0000034702765934e-01 0 0 0
174 1 2.3794557538585487e+01 1.0252706879346334e+01 2.0000034692188032e-01 0 0 0
175 1 2.5195622153770778e+01 1.0198779877100298e+01 2.0000034686137938e-01 0 0 0
176 1 2.3887961846293585e+01 1.2679421977750010e+01 2.0000034710347975e-01 0 0 0
177 1 2.5289026461561427e+01 1.2625494975583164e+01 2.0000034680241213e-01 0 0 0
178 1 2.3981366153884686e+01 1.5106137076101406e+01 2.0000034720386209e-01 0 0 0
179 1 2.5382430769272041e+01 1.5052210074091320e+01 2.0000034678863163e-01 0 0 0
180 1 2.4074770461548390e+01 1.7532852174510865e+01 2.0000034722095031e-01 0 0 0
181 1 2.5475835077020101e+01 1.7478925172620393e+01 2.0000034686556536e-01 0 0 0
182 1 2.4168174769240892e+01 1.9959567273059548e+01 2.0000034723511723e-01 0 0 0
183 1 2.5569239384711075e+01 1.9905640271172462e+01 2.0000034694946314e-01 0 0 0
184 1 2.4261579076856492e+01 2.2386282371730957e+01 2.0000034721055845e-01 0 0 0
185 1 2.5662643692313303e+01 2.2332355369798456e+01 2.0000034704716366e-01 0 0 0
186 1 2.4354983384433723e+01 2.4812997470426339e+01 2.0000034707949185e-01 0 0 0
187 1 2.5756047999908674e+01 2.4759070468444165e+01 2.0000034704024228e-01 0 0 0
188 1 2.4448387692196292e+01 2.7239712569028150e+01 2.0000034690227278e-01 0 0 0
189 1 2.5849452307648484e+01 2.7185785567010026e+01 2.0000034703454514e-01 0 0 0
190 1 2.5569239384526000e+01 1.6783135310607806e+00 2.0000034685389731e-01 0 0 0
191 1 2.6970303999897943e+01 1.6243865285668726e+00 2.0000034740981440e-01 0 0 0
192 1 2.5662643692280369e+01 4.1050286295895067e+00 2.0000034678863240e-01 0 0 0
193 1 2.7063708307479892e+01 4.0511016271853100e+00 2.0000034737503630e-01 0 0 0
194 1 2.5756047999989796e+01 6.5317437281299835e+00 2.0000034682008824e-01 0 0 0
195 1 2.7157112615079043e+01 6.4778167258085526e+00 2.0000034722095039e-01 0 0 0
196 1 2.5849452307793364e+01 8.9584588267026408e+00 2.0000034690897170e-01 0 0 0
197 1 2.7250516922898051e+01 8.9045318243914409e+00 2.0000034703454150e-01 0 0 0
198 1 2.5942856615637069e+01 1.1385173925170742e+01 2.0000034710870895e-01 0 0 0
199 1 2.7343921230782406e+01 1.1331246922943240e+01 2.0000034686544463e-01 0 0 0
200 1 2.6036260923306763e+01 1.3811889023586753e+01 2.0000034728881369e-01 0 0 0
201 1 2.7437325538470311e+01 1.3757962021489092e+01 2.0000034685389415e-01 0 0 0
202 1 2.6129665230903818e+01 1.6238604121995497e+01 2.0000034737503550e-01 0 0 0
203 1 2.7530729846190169e+01 1.6184677120091212e+01 2.0000034692149957e-01 0 0 0
204 1 2.6223069538459939e+01 1.8665319220450659e+01 2.0000034735205194e-01 0 0 0
205 1 2.7624134153933980e+01 1.8611392218663301e+01 2.0000034694978552e-01 0 0 0
206 1 2.6316473846020145e+01 2.1092034319070390e+01 2.0000034738163636e-01 0 0 0
207 1 2.7717538461555392e+01 2.1038107317241870e+01 2.0000034699466004e-01 0 0 0
208 1 2.6409878153589695e+01 2.3518749417709671e+01 2.0000034727997837e-01 0 0 0
209 1 2.7810942769129277e+01 2.3464822415781001e+01 2.0000034692481733e-01 0 0 0
210 1 2.6503282461287611e+01 2.5945464516332983e+01 2.0000034709565473e-01 0 0 0
211 1 2.7904347076814531e+01 2.5891537514307707e+01 2.0000034686544735e-01 0 0 0
212 1 2.7624134153768061e+01 3.8406547858488160e-01 2.0000034694780661e-01 0 0 0
213 1 2.9025198769216388e+01 3.3013847605303714e-01 2.0000034754061585e-01 0 0 0
214 1 2.7717538461524057e+01 2.8107805770517156e+00 2.0000034692150162e-01 0 0 0
215 1 2.9118603076681111e+01 2.7568535746088911e+00 2.0000034747064918e-01 0 0 0
216 1 2.7810942769227836e+01 5.2374956755213260e+00 2.0000034686556570e-01 0 0 0
217 1 2.9212007384267402e+01 5.1835686732463859e+00 2.0000034735205227e-01 0 0 0
218 1 2.7904347076938109e+01 7.6642107740336174e+00 2.0000034690226923e-01 0 0 0
219 1 2.9305411692015703e+01 7.6102837717982892e+00 2.0000034723511723e-01 0 0 0
220 1 2.7997751384840541e+01 1.0090925872543409e+01 2.0000034709565190e-01 0 0 0
221 1 2.9398815999902794e+01 1.0036998870350020e+01 2.0000034704024075e-01 0 0 0
222 1 2.8091155692655541e+01 1.2517640971046911e+01 2.0000034727444951e-01 0 0 0
223 1 2.9492220307697281e+01 1.2463713968930422e+01 2.0000034692481677e-01 0 0 0
224 1 2.8184560000264476e+01 1.4944356069495150e+01 2.0000034740981118e-01 0 0 0
225 1 2.9585624615347541e+01 1.4890429067493296e+01 2.0000034694780303e-01 0 0 0
226 1 2.8277964307834139e+01 1.7371071167939306e+01 2.0000034747064735e-01 0 0 0
227 1 2.9679028923118061e+01 1.7317144166050838e+01 2.0000034700121733e-01 0 0 0
228 1 2.8371368615245380e+01 1.9797786266468894e+01 2.0000034747408038e-01 0 0 0
229 1 2.9772433230766310e+01 1.9743859264648894e+01 2.0000034701137123e-01 0 0 0
230 1 2.8464772922807548e+01 2.2224501365092962e+01 2.0000034739479600e-01 0 0 0
231 1 2.9865837538406858e+01 2.2170574363251546e+01 2.0000034694780319e-01 0 0 0
232 1 2.8558177230432975e+01 2.4651216463692407e+01 2.0000034727445093e-01 0 0 0
233 1 2.9959241846057104e+01 2.4597289461755988e+01 2.0000034685389531e-01 0 0 0
234 1 2.8651581538277348e+01 2.7077931562227153e+01 2.0000034710871251e-01 0 0 0
235 1 3.0052646153794655e+01 2.7024004560212550e+01 2.0000034680241571e-01 0 0 0
236 1 2.9772433230736297e+01 1.5165325244871404e+00 2.0000034700122041e-01 0 0 0
237 1 3.1173497845980933e+01 1.4626055222643974e+00 2.0000034766942743e-01 0 0 0
238 1 2.9865837538506625e+01 3.9432476230087161e+00 2.0000034694978641e-01 0 0 0
239 1 3.1266902153460649e+01 3.8893206208326476e+00 2.0000034747408110e-01 0 0 0
240 1 2.9959241846166648e+01 6.3699627215140948e+00 2.0000034694946328e-01 0 0 0
241 1 3.1360306461199450e+01 6.3160357193862309e+00 2.0000034738163636e-01 0 0 0
242 1 3.0052646153973733e+01 8.7966778200141551e+00 2.0000034707949013e-01 0 0 0
243 1 3.1453710769020212e+01 8.7427508179159954e+00 2.0000034721055815e-01 0 0 0
244 1 3.0146050461846926e+01 1.1223392918565334e+01 2.0000034727997767e-01 0 0 0
245 1 3.1547115076874931e+01 1.1169465916472394e+01 2.0000034704716338e-01 0 0 0
246 1 3.0239454769602588e+01 1.3650108017120099e+01 2.0000034739479577e-01 0 0 0
247 1 3.1640519384566375e+01 1.3596181015018100e+01 2.0000034699465993e-01 0 0 0
248 1 3.0332859077228925e+01 1.6076823115570985e+01 2.0000034754061233e-01 0 0 0
249 1 3.1733923692304984e+01 1.6022896113555014e+01 2.0000034701137123e-01 0 0 0
250 1 3.0426263384615474e+01 1.8503538214083687e+01 2.0000034766942459e-01 0 0 0
251 1 3.1827328000000023e+01 1.8449611212093060e+01 2.0000034706801037e-01 0 0 0
252 1 3.0519667692000098e+01 2.0930253312640215e+01 2.0000034754061244e-01 0 0 0
253 1 3.1920732307619673e+01 2.0876326310620588e+01 2.0000034700121738e-01 0 0 0
254 1 3.0613071999631934e+01 2.3356968411256030e+01 2.0000034740981168e-01 0 0 0
255 1 3.2014136615333896e+01 2.3303041409146648e+01 2.0000034692150004e-01 0 0 0
256 1 3.0706476307403832e+01 2.5783683509780424e+01 2.0000034728881616e-01 0 0 0
257 1 3.2107540923009758e+01 2.5729756507682485e+01 2.0000034678863407e-01 0 0 0
258 1 3.1920732307695069e+01 2.6489995705380500e+00 2.0000034701137279e-01 0 0 0
259 1 3.2014136615433671e+01 5.0757146690749604e+00 2.0000034699466018e-01 0 0 0
260 1 3.3415201230397415e+01 5.0217876669729682e+00 2.0000034739479600e-01 0 0 0
261 1 3.2107540923125121e+01 7.5024297676206766e+00 2.0000034704716343e-01 0 0 0
262 1 3.3508605538153091e+01 7.4485027655277314e+00 2.0000034727997776e-01 0 0 0
263 1 3.2200945230979833e+01 9.9291448661770723e+00 2.0000034721055815e-01 0 0 0
264 1 3.3602009846026299e+01 9.8752178640789072e+00 2.0000034707949013e-01 0 0 0
265 1 3.2294349538800574e+01 1.2355859964706836e+01 2.0000034738163619e-01 0 0 0
266 1 3.3695414153833376e+01 1.2301932962578972e+01 2.0000034694946314e-01 0 0 0
267 1 3.2387753846539390e+01 1.4782575063260408e+01 2.0000034747408033e-01 0 0 0
268 1 3.3788818461493399e+01 1.4728648061084343e+01 2.0000034694978552e-01 0 0 0
269 1 3.2481158154018480e+01 1.7209290161831269e+01 2.0000034766942459e-01 0 0 0
270 1 3.3882222769262299e+01 1.7155363159607756e+01 2.0000034700121733e-01 0 0 0
271 1 3.2574562461366099e+01 1.9636005260364232e+01 2.0000034766942459e-01 0 0 0
272 1 3.3975627076928745e+01 1.9582078258075281e+01 2.0000034701137123e-01 0 0 0
273 1 3.2667966768847016e+01 2.2062720358855692e+01 2.0000034747064743e-01 0 0 0
274 1 3.4069031384572675e+01 2.2008793356531555e+01 2.0000034694978575e-01 0 0 0
275 1 3.2761371076576140e+01 2.4489435457375965e+01 2.0000034737503658e-01 0 0 0
276 1 3.4162435692207765e+01 2.4435508455087060e+01 2.0000034686556634e-01 0 0 0
277 1 3.2854775384405329e+01 2.6916150555920243e+01 2.0000034720386542e-01 0 0 0
278 1 3.4255839999932689e+01 2.6862223553629093e+01 2.0000034682009149e-01 0 0 0
279 1 3.4162435692302751e+01 6.2081817151626444e+00 2.0000034692481689e-01 0 0 0
280 1 3.4255840000097301e+01 8.6348968137430386e+00 2.0000034704024075e-01 0 0 0
281 1 3.5656904615159462e+01 8.5809698115496644e+00 2.0000034709565190e-01 0 0 0
282 1 3.4349244307984286e+01 1.1061611912294778e+01 2.0000034723511720e-01 0 0 0
283 1 3.5750308923061944e+01 1.1007684910059456e+01 2.0000034690226914e-01 0 0 0
284 1 3.4442648615732615e+01 1.3488327010846676e+01 2.0000034735205194e-01 0 0 0
285 1 3.5843713230772202e+01 1.3434400008571737e+01 2.0000034686556536e-01 0 0 0
286 1 3.4536052923318906e+01 1.5915042109484178e+01 2.0000034747064735e-01 0 0 0
287 1 3.5937117538476009e+01 1.5861115107041345e+01 2.0000034692149957e-01 0 0 0
288 1 3.4629457230770967e+01 1.8341757208067982e+01 2.0000034754061233e-01 0 0 0
289 1 3.6030521846245612e+01 1.8287830205534370e+01 2.0000034694780303e-01 0 0 0
290 1 3.4722861538215220e+01 2.0768472306549882e+01 2.0000034747408041e-01 0 0 0
291 1 3.6123926153878259e+01 2.0714545304019225e+01 2.0000034699465999e-01 0 0 0
292 1 3.4816265845807457e+01 2.3195187404981855e+01 2.0000034735205235e-01 0 0 0
293 1 3.6217330461455603e+01 2.3141260402527749e+01 2.0000034694946345e-01 0 0 0
294 1 3.4909670153529078e+01 2.5621902503481973e+01 2.0000034722095242e-01 0 0 0
295 1 3.6310734769123194e+01 2.5567975501041357e+01 2.0000034690227120e-01 0 0 0
296 1 3.6404139077101988e+01 9.7673638597016303e+00 2.0000034703454150e-01 0 0 0
297 1 3.6497543384920945e+01 1.2194078958284512e+01 2.0000034722095031e-01 0 0 0
298 1 3.7898608000010213e+01 1.2140151955963079e+01 2.0000034682008808e-01 0 0 0
299 1 3.6590947692520096e+01 1.4620794056907746e+01 2.0000034737503550e-01 0 0 0
300 1 3.7992012307719669e+01 1.4566867054503552e+01 2.0000034678863163e-01 0 0 0
301 1 3.6684352000103615e+01 1.7047509155528033e+01 2.0000034740981118e-01 0 0 0
302 1 3.8085416615472610e+01 1.6993582153034133e+01 2.0000034685389415e-01 0 0 0
303 1 3.6777756307589911e+01 1.9474224254066140e+01 2.0000034739479577e-01 0 0 0
304 1 3.8178820923173461e+01 1.9420297251567781e+01 2.0000034692481677e-01 0 0 0
305 1 3.6871160615179299e+01 2.1900939352501965e+01 2.0000034738163638e-01 0 0 0
306 1 3.8272225230811848e+01 2.1847012350008349e+01 2.0000034704716352e-01 0 0 0
307 1 3.6964564922774848e+01 2.4327654450924875e+01 2.0000034723511806e-01 0 0 0
308 1 3.8365629538407440e+01 2.4273727448393952e+01 2.0000034707949094e-01 0 0 0
309 1 3.7057969230572830e+01 2.6754369549353136e+01 2.0000034703454470e-01 0 0 0
310 1 3.8459033846116043e+01 2.6700442546805501e+01 2.0000034709565501e-01 0 0 0
311 1 3.8645842461722665e+01 1.3326546004229568e+01 2.0000034720386209e-01 0 0 0
312 1 3.8739246769287874e+01 1.5753261102910191e+01 2.0000034728881369e-01 0 0 0
313 1 4.0140311384630280e+01 1.5699334100457312e+01 2.0000034680241213e-01 0 0 0
314 1 3.8832651076911553e+01 1.8179976201539919e+01 2.0000034727444951e-01 0 0 0
315 1 4.0233715692404530e+01 1.8126049199026411e+01 2.0000034686544463e-01 0 0 0
316 1 3.8926055384563405e+01 2.0606691300004186e+01 2.0000034727997779e-01 0 0 0
317 1 4.0327120000188614e+01 2.0552764297485012e+01 2.0000034704024075e-01 0 0 0
318 1 3.9019459692163736e+01 2.3033406398371170e+01 2.0000034721055845e-01 0 0 0
319 1 4.0420524307836295e+01 2.2979479395861485e+01 2.0000034721055845e-01 0 0 0
320 1 3.9112863999809854e+01 2.5460121496745810e+01 2.0000034704024253e-01 0 0 0
321 1 4.0513928615438076e+01 2.5406194494226632e+01 2.0000034727997940e-01 0 0 0
322 1 4.0887545846098249e+01 1.6885728148853339e+01 2.0000034710870895e-01 0 0 0
323 1 4.0980950153870303e+01 1.9312443247400974e+01 2.0000034709565190e-01 0 0 0
324 1 4.2382014769439799e+01 1.9258516244851574e+01 2.0000034703454150e-01 0 0 0
325 1 4.1074354461592584e+01 2.1739158345838703e+01 2.0000034707949027e-01 0 0 0
326 1 4.2475419077225176e+01 2.1685231343307787e+01 2.0000034723511728e-01 0 0 0
327 1 4.1167758769188204e+01 2.4165873444224300e+01 2.0000034704716405e-01 0 0 0
328 1 4.2568823384820703e+01 2.4111946441730716e+01 2.0000034738163688e-01 0 0 0
329 1 4.1261163076839189e+01 2.6592588542636918e+01 2.0000034692481966e-01 0 0 0
330 1 4.2662227692396435e+01 2.6538661540140343e+01 2.0000034739479866e-01 0 0 0
331 1 4.3129249230878273e+01 2.0444910293189441e+01 2.0000034690226920e-01 0 0 0
332 1 4.3222653538544449e+01 2.2871625391704914e+01 2.0000034694946334e-01 0 0 0
333 1 4.4623718154192588e+01 2.2817698389250822e+01 2.0000034735205219e-01 0 0 0
334 1 4.3316057846120223e+01 2.5298340490211611e+01 2.0000034699466138e-01 0 0 0
335 1 4.4717122461786204e+01 2.5244413487680941e+01 2.0000034747408188e-01 0 0 0
336 1 4.5370952615427370e+01 2.4004092437701100e+01 2.0000034694978625e-01 0 0 0
337 1 4.5464356923083933e+01 2.6430807536129425e+01 2.0000034701137404e-01 0 0 0
338 1 4.6865421538622371e+01 2.6376880533842908e+01 2.0000034766942751e-01 0 0 0
339 1 3.1827327999987396e+01 2.2228447202981688e-01 4.4735116529319887e+00 -1 0 0
340 1 3.0588012307836054e+00 3.3013847605303781e-01 4.4735116524593881e+00 0 0 0
341 1 2.3115667692637025e+00 1.5165325244871424e+00 4.4735116529987833e+00 0 0 0
342 1 2.9653969233188722e+00 2.7568535746088911e+00 4.4735116525293570e+00 0 0 0
343 1 4.4598658462319527e+00 3.8406547858488294e-01 4.4735116530521957e+00 0 0 0
344 1 5.1136960001020562e+00 1.6243865285668744e+00 4.4735116525901883e+00 0 0 0
345 1 4.3664615384759653e+00 2.8107805770517200e+00 4.4735116530785026e+00 0 0 0
346 1 5.0202916925201055e+00 4.0511016271853100e+00 4.4735116526249694e+00 0 0 0
347 1 4.2730572307721815e+00 5.2374956755213304e+00 4.4735116531344374e+00 0 0 0
348 1 4.9268873849209633e+00 6.4778167258085526e+00 4.4735116527790515e+00 0 0 0
349 1 7.2619950769241477e+00 4.9191948258112672e-01 4.4735116527255503e+00 0 0 0
350 1 6.5147606154740334e+00 1.6783135310607835e+00 4.4735116531461063e+00 0 0 0
351 1 7.1685907692878592e+00 2.9186345811828667e+00 4.4735116527111893e+00 0 0 0
352 1 6.4213563077196483e+00 4.1050286295895120e+00 4.4735116532113750e+00 0 0 0
353 1 7.0751864617226605e+00 5.3453496798634976e+00 4.4735116527961383e+00 0 0 0
354 1 6.3279520000101961e+00 6.5317437281299888e+00 4.4735116531799157e+00 0 0 0
355 1 6.9817821540427243e+00 7.7720647785183123e+00 4.4735116529723467e+00 0 0 0
356 1 6.2345476922066521e+00 8.9584588267026497e+00 4.4735116530910313e+00 0 0 0
357 1 6.8883778462292202e+00 1.0198779877100298e+01 4.4735116531386243e+00 0 0 0
358 1 8.6630596923908687e+00 5.4584648509282652e-01 4.4735116531345556e+00 0 0 0
359 1 9.3168898460966698e+00 1.7861675352415671e+00 4.4735116528912906e+00 0 0 0
360 1 8.5696553846302947e+00 2.9725615836357444e+00 4.4735116531975878e+00 0 0 0
361 1 9.2234855384377799e+00 4.2128826338845773e+00 4.4735116528965237e+00 0 0 0
362 1 8.4762510769200805e+00 5.3992766822274518e+00 4.4735116532151409e+00 0 0 0
363 1 9.1300812308609505e+00 6.6395977325638071e+00 4.4735116529741195e+00 0 0 0
364 1 8.3828467691556998e+00 7.8259917808243733e+00 4.4735116531757342e+00 0 0 0
365 1 9.0366769231815791e+00 9.0663128311810866e+00 4.4735116531152963e+00 0 0 0
366 1 8.2894424614145255e+00 1.0252706879346352e+01 4.4735116530781269e+00 0 0 0
367 1 8.9432726154559337e+00 1.1493027929705555e+01 4.4735116531877939e+00 0 0 0