LAMMPS data file via write_data, version 3 Mar 2020, timestep = 16

244 atoms
1 atom types

1.5420556800000007e-01 1.9121490431999991e+01 xlo xhi
1.3354594399999994e-01 1.6559697056000008e+01 ylo yhi
1.9999999999999990e-01 2.4800000000000011e+01 zlo zhi
9.4828080000000039e+00 0.0000000000000000e+00 0.0000000000000000e+00 xy xz yz

Masses

1 12.0107

Atoms # atomic

1 1 1.5420751017641152e-01 1.3354633655313092e-01 2.0000096157223399e-01 0 0 0
2 1 1.7089010784768928e+00 2.4673159301061749e+00 2.0000096246768173e-01 0 0 0
3 1 2.3307798452097486e+00 1.2106710845387272e+00 2.0000096123891162e-01 0 0 0
4 1 3.7300057316015911e+00 1.1209098027397266e+00 2.0000096234009038e-01 0 0 0
5 1 2.4862488131836846e+00 3.6342010122330350e+00 2.0000096097567360e-01 0 0 0
6 1 3.8854747596224604e+00 3.5444406259315380e+00 2.0000096191112626e-01 0 0 0
7 1 4.0409443100995688e+00 5.9679710572414066e+00 2.0000096102506548e-01 0 0 0
8 1 4.5073529727725576e+00 2.2877952852495627e+00 2.0000096076291485e-01 0 0 0
9 1 5.9065789206119828e+00 2.1980347708282668e+00 2.0000096149563087e-01 0 0 0
10 1 4.6628225089333641e+00 4.7113256481310390e+00 2.0000096089369221e-01 0 0 0
11 1 6.0620484556072789e+00 4.6215652618174898e+00 2.0000096126303529e-01 0 0 0
12 1 4.8182920589753282e+00 7.1348560798895750e+00 2.0000096150002480e-01 0 0 0
13 1 6.2175180053585892e+00 7.0450956934360596e+00 2.0000096092562819e-01 0 0 0
14 1 6.3729875554954063e+00 9.4686261250194494e+00 2.0000096089442629e-01 0 0 0
15 1 6.5284577528132370e+00 9.4138988710549376e-01 2.0000096101730991e-01 0 0 0
16 1 7.9276835735833187e+00 8.5162864284430417e-01 2.0000096088476685e-01 0 0 0
17 1 6.6839266545735638e+00 3.3649198527171658e+00 2.0000096092320979e-01 0 0 0
18 1 8.0831526017587549e+00 3.2751594667429096e+00 2.0000096119115338e-01 0 0 0
19 1 6.8393962044793941e+00 5.7884502845929084e+00 2.0000096119339725e-01 0 0 0
20 1 8.2386221512356670e+00 5.6986898981193352e+00 2.0000096139565970e-01 0 0 0
21 1 6.9948657537346648e+00 8.2119807164144518e+00 2.0000096126328135e-01 0 0 0
22 1 8.3940917011656513e+00 8.1222203296910749e+00 2.0000096119374139e-01 0 0 0
23 1 7.1503353035476689e+00 1.0635511147989247e+01 2.0000096102558076e-01 0 0 0
24 1 8.5495612509995933e+00 1.0545750761184216e+01 2.0000096150059388e-01 0 0 0
25 1 8.7050308017427334e+00 1.2969281192985978e+01 2.0000096235050471e-01 0 0 0
26 1 8.7050308141167463e+00 2.0185141258040042e+00 2.0000096125483893e-01 0 0 0
27 1 1.0104256761980611e+01 1.9287536112491408e+00 2.0000096091932343e-01 0 0 0
28 1 8.8605003500988797e+00 4.4420444890522299e+00 2.0000096139470663e-01 0 0 0
29 1 1.0259726297329884e+01 4.3522841027853012e+00 2.0000096139490292e-01 0 0 0
30 1 9.0159698996039683e+00 6.8655749209284087e+00 2.0000096139598941e-01 0 0 0
31 1 1.0415195846835557e+01 6.7758145346714631e+00 2.0000096139595253e-01 0 0 0
32 1 9.1714394492224152e+00 9.2891053526336140e+00 2.0000096092611686e-01 0 0 0
33 1 1.0570665396580084e+01 9.1993449664389821e+00 2.0000096126335443e-01 0 0 0
34 1 9.3269089992429191e+00 1.1712635784238092e+01 2.0000096076959956e-01 0 0 0
35 1 1.0726134946865388e+01 1.1622875398307986e+01 2.0000096191241165e-01 0 0 0
36 1 9.4823785348280634e+00 1.4136166275617200e+01 2.0000096124202521e-01 0 0 0
37 1 1.0881604496825593e+01 1.4046405829936937e+01 2.0000096246706170e-01 0 0 0
38 1 1.1037072103672800e+01 1.6469935869566992e+01 2.0000096299541573e-01 0 0 0
39 1 1.0726135593951794e+01 6.7210872862890880e-01 2.0000096149081897e-01 0 0 0
40 1 1.2125361414862658e+01 5.8234748349446630e-01 2.0000096101625217e-01 0 0 0
41 1 1.0881604495752432e+01 3.0956386940645912e+00 2.0000096119041205e-01 0 0 0
42 1 1.2280830443190663e+01 3.0058783072972988e+00 2.0000096125937361e-01 0 0 0
43 1 1.1037074045698128e+01 5.5191691256042219e+00 2.0000096139560808e-01 0 0 0
44 1 1.2436299992454765e+01 5.4294087391308787e+00 2.0000096119326499e-01 0 0 0
45 1 1.1192543595153850e+01 7.9426995569597638e+00 2.0000096119362371e-01 0 0 0
46 1 1.2591769542346187e+01 7.8529391710391607e+00 2.0000096092580186e-01 0 0 0
47 1 1.1348013144707645e+01 1.0366229988760832e+01 2.0000096089455088e-01 0 0 0
48 1 1.2747239092135311e+01 1.0276469602731153e+01 2.0000096102513851e-01 0 0 0
49 1 1.1503482694962004e+01 1.2789760420463510e+01 2.0000096097451608e-01 0 0 0
50 1 1.2902708642513042e+01 1.2700000034595071e+01 2.0000096186296357e-01 0 0 0
51 1 1.1658952171119633e+01 1.5213290878182903e+01 2.0000096131399719e-01 0 0 0
52 1 1.3058178177880551e+01 1.5123530398313102e+01 2.0000096239758125e-01 0 0 0
53 1 1.2902708655538486e+01 1.7492329672205509e+00 2.0000096088572153e-01 0 0 0
54 1 1.4301934603188107e+01 1.6594724514723158e+00 2.0000096190937494e-01 0 0 0
55 1 1.3058178191590260e+01 4.1727633302667728e+00 2.0000096092412725e-01 0 0 0
56 1 1.4457404138081042e+01 4.0830029437026019e+00 2.0000096149954774e-01 0 0 0
57 1 1.3213647741326803e+01 6.5962937618963400e+00 2.0000096126296768e-01 0 0 0
58 1 1.4612873688018558e+01 6.5065333756056054e+00 2.0000096089439781e-01 0 0 0
59 1 1.3369117290601848e+01 9.0198241930583176e+00 2.0000096149995014e-01 0 0 0
60 1 1.4768343237961419e+01 8.9300638070185059e+00 2.0000096076835647e-01 0 0 0
61 1 1.3524586840588848e+01 1.1443354624432249e+01 2.0000096158433717e-01 0 0 0
62 1 1.4923812787885543e+01 1.1353594238587339e+01 2.0000096106423040e-01 0 0 0
63 1 1.3680056390181788e+01 1.3866885056544115e+01 2.0000096161606604e-01 0 0 0
64 1 1.5079282337302056e+01 1.3777124670735551e+01 2.0000096161745129e-01 0 0 0
65 1 1.3835525418157518e+01 1.6290415880852692e+01 2.0000096105786536e-01 0 0 0
66 1 1.5234751238840120e+01 1.6200654636774054e+01 2.0000096157594285e-01 0 0 0
67 1 1.4923813435328533e+01 4.0282756891945182e-01 2.0000096097238571e-01 0 0 0
68 1 1.6323039256045377e+01 3.1306632353409652e-01 2.0000096247589644e-01 0 0 0
69 1 1.5079282337174339e+01 2.8263575346779568e+00 2.0000096076996079e-01 0 0 0
70 1 1.6478508283632912e+01 2.7365971476509254e+00 2.0000096235063416e-01 0 0 0
71 1 1.5234751887174927e+01 5.2498879664820883e+00 2.0000096102528894e-01 0 0 0
72 1 1.6633977833488217e+01 5.1601275796052164e+00 2.0000096158513006e-01 0 0 0
73 1 1.5390221437323387e+01 7.6734183977734487e+00 2.0000096191196867e-01 0 0 0
74 1 1.6789447383847268e+01 7.5836580114103667e+00 2.0000096097359027e-01 0 0 0
75 1 1.5545690986597105e+01 1.0096948828812687e+01 2.0000096234583203e-01 0 0 0
76 1 1.6944916933549798e+01 1.0007188443299970e+01 2.0000096123218936e-01 0 0 0
77 1 1.5701160535684524e+01 1.2520479260569429e+01 2.0000096239899492e-01 0 0 0
78 1 1.7100386483128517e+01 1.2430718875222034e+01 2.0000096130708561e-01 0 0 0
79 1 1.5856630070649542e+01 1.4944009752545572e+01 2.0000096185813482e-01 0 0 0
80 1 1.7255856018667728e+01 1.4854249238341302e+01 2.0000096096668118e-01 0 0 0
81 1 1.7100386496878087e+01 1.4799518076623592e+00 2.0000096124719705e-01 0 0 0
82 1 1.8499612502483245e+01 1.3901913265982093e+00 2.0000096299901882e-01 0 0 0
83 1 1.7255856032726051e+01 3.9034821706998057e+00 2.0000096106771389e-01 0 0 0
84 1 1.8655081978958833e+01 3.8137217844914204e+00 2.0000096240414353e-01 0 0 0
85 1 1.7411325583212367e+01 6.3270126022975761e+00 2.0000096186428118e-01 0 0 0
86 1 1.8810551529317877e+01 6.2372522162430144e+00 2.0000096162103131e-01 0 0 0
87 1 1.7566795133046213e+01 8.7505430338603443e+00 2.0000096246179816e-01 0 0 0
88 1 1.8966021079141179e+01 8.6607826480177277e+00 2.0000096130877701e-01 0 0 0
89 1 1.7722264681817116e+01 1.1174073465202293e+01 2.0000096298057543e-01 0 0 0
90 1 1.9121490628936428e+01 1.1084313079729913e+01 2.0000096155159094e-01 0 0 0
91 1 1.7877734230591834e+01 1.3597603897274487e+01 2.0000096245847598e-01 0 0 0
92 1 1.9276960178457990e+01 1.3507843511326039e+01 2.0000096122901845e-01 0 0 0
93 1 1.8033203259180134e+01 1.6021134721119239e+01 2.0000096190214847e-01 0 0 0
94 1 1.9432429080173449e+01 1.5931373476975244e+01 2.0000096075913654e-01 0 0 0
95 1 1.9276960178409752e+01 2.5570763758186037e+00 2.0000096131976139e-01 0 0 0
96 1 1.9432429728539454e+01 4.9806068075196022e+00 2.0000096162214856e-01 0 0 0
97 1 2.0831655674534936e+01 4.8908464215593526e+00 2.0000096186486896e-01 0 0 0
98 1 1.9587899278907457e+01 7.4041372392255775e+00 2.0000096240090445e-01 0 0 0
99 1 2.0987125225115577e+01 7.3143768530378912e+00 2.0000096106487436e-01 0 0 0
100 1 1.9743368828421922e+01 9.8276676711512092e+00 2.0000096298087572e-01 0 0 0
101 1 2.1142594774817297e+01 9.7379072845286885e+00 2.0000096123214420e-01 0 0 0
102 1 1.9898838376571064e+01 1.2251198102844020e+01 2.0000096298002976e-01 0 0 0
103 1 2.1298064324539553e+01 1.2161437715950088e+01 2.0000096130832798e-01 0 0 0
104 1 2.0054307911760752e+01 1.4674728594139514e+01 2.0000096234200015e-01 0 0 0
105 1 2.1453533860029744e+01 1.4584968079037562e+01 2.0000096106061976e-01 0 0 0
106 1 2.1609003424039983e+01 6.0577314441285797e+00 2.0000096158505706e-01 0 0 0
107 1 2.1764472974171532e+01 8.4812618760985732e+00 2.0000096234612894e-01 0 0 0
108 1 2.3163698920550040e+01 8.3915014892033888e+00 2.0000096076839330e-01 0 0 0
109 1 2.1919942523193242e+01 1.0904792308073949e+01 2.0000096246167107e-01 0 0 0
110 1 2.3319168470515741e+01 1.0815031920910242e+01 2.0000096097339068e-01 0 0 0
111 1 2.2075412072240582e+01 1.3328322739423605e+01 2.0000096239867590e-01 0 0 0
112 1 2.3474638020229634e+01 1.3238562352144340e+01 2.0000096161932227e-01 0 0 0
113 1 2.2230881100483288e+01 1.5751853562740427e+01 2.0000096157524860e-01 0 0 0
114 1 2.3630106921645385e+01 1.5662092317024676e+01 2.0000096185811564e-01 0 0 0
115 1 2.3941046668607392e+01 9.5583865124129535e+00 2.0000096191214828e-01 0 0 0
116 1 2.4096516218675482e+01 1.1981916944218986e+01 2.0000096186386468e-01 0 0 0
117 1 2.5495742166371635e+01 1.1892156556820563e+01 2.0000096158613101e-01 0 0 0
118 1 2.4251985753852104e+01 1.4405447434987524e+01 2.0000096161998079e-01 0 0 0
119 1 2.5651211702310469e+01 1.4315686919377269e+01 2.0000096240706267e-01 0 0 0
120 1 2.6273089914209130e+01 1.3059041579774293e+01 2.0000096106925300e-01 0 0 0
121 1 2.6428558942505845e+01 1.5482572403553535e+01 2.0000096132490880e-01 0 0 0
122 1 2.7827784829708605e+01 1.5392811120385616e+01 2.0000096299856560e-01 0 0 0
123 1 9.6370155193559111e+00 1.6559696664330044e+01 4.4735110384681889e+00 0 -1 0
124 1 2.9526579830210644e+00 3.1306710780888430e-01 4.4735110375523037e+00 0 0 0
125 1 2.1753097285916394e+00 1.4799516711489296e+00 4.4735110387825534e+00 0 0 0
126 1 2.7971879133499566e+00 2.7365971475127888e+00 4.4735110376584419e+00 0 0 0
127 1 4.3518840573975810e+00 4.0282663802386509e-01 4.4735110390256478e+00 0 0 0
128 1 4.9737616217694587e+00 1.6594725714009431e+00 4.4735110380854612e+00 0 0 0
129 1 4.1964138597284117e+00 2.8263575345962861e+00 4.4735110392331991e+00 0 0 0
130 1 4.8182920588659579e+00 4.0830029437368154e+00 4.4735110384994297e+00 0 0 0
131 1 4.0409443100974825e+00 5.2498879665194966e+00 4.4735110389751229e+00 0 0 0
132 1 4.6628225090686879e+00 6.5065333754658612e+00 4.4735110391057535e+00 0 0 0
133 1 7.1503358241598765e+00 5.8234826775919113e-01 4.4735110389662598e+00 0 0 0
134 1 6.3729875694615554e+00 1.7492328305706943e+00 4.4735110390972199e+00 0 0 0
135 1 6.9948657536971783e+00 3.0058783073448088e+00 4.4735110387330321e+00 0 0 0
136 1 6.2175180053435426e+00 4.1727633302723373e+00 4.4735110390725206e+00 0 0 0
137 1 6.8393962044787413e+00 5.4294087391344155e+00 4.4735110388057961e+00 0 0 0
138 1 6.0620484556237528e+00 6.5962937618759421e+00 4.4735110387365555e+00 0 0 0
139 1 6.6839266546049698e+00 7.8529391710494334e+00 4.4735110390741575e+00 0 0 0
140 1 5.9065789066733752e+00 9.0198241930921625e+00 4.4735110384998178e+00 0 0 0
141 1 6.5284571049547235e+00 1.0276469602594560e+01 4.4735110389749630e+00 0 0 0
142 1 8.5495618988063917e+00 6.7210779773127372e-01 4.4735110384908623e+00 0 0 0
143 1 9.1714394629843490e+00 1.9287537311767773e+00 4.4735110390678070e+00 0 0 0
144 1 8.3940917011485379e+00 3.0956386940079001e+00 4.4735110388029931e+00 0 0 0
145 1 9.0159698996027924e+00 4.3522841028115753e+00 4.4735110386025516e+00 0 0 0
146 1 8.2386221512351661e+00 5.5191691256089728e+00 4.4735110386032435e+00 0 0 0
147 1 8.8605003500996542e+00 6.7758145346724517e+00 4.4735110386035801e+00 0 0 0
148 1 8.0831526017815456e+00 7.9426995569611627e+00 4.4735110388061425e+00 0 0 0
149 1 8.7050308003550008e+00 9.1993449664404672e+00 4.4735110387369446e+00 0 0 0
150 1 7.9276830522435686e+00 1.0366229988745605e+01 4.4735110391059134e+00 0 0 0
151 1 8.5495612500816751e+00 1.1622875398340611e+01 4.4735110380883558e+00 0 0 0
152 1 7.7722135022902270e+00 1.2789760420493447e+01 4.4735110390276382e+00 0 0 0
153 1 8.3940917002287652e+00 1.4046405830036587e+01 4.4735110375433731e+00 0 0 0
154 1 1.1348013665443949e+01 8.5162942710608325e-01 4.4735110390962882e+00 0 0 0
155 1 1.0570665410887623e+01 2.0185139891511286e+00 4.4735110387285344e+00 0 0 0
156 1 1.1192543595131204e+01 3.2751594667917723e+00 4.4735110388037249e+00 0 0 0
157 1 1.0415195846834772e+01 4.4420444890589614e+00 4.4735110386023562e+00 0 0 0
158 1 1.1037074045698619e+01 5.6986898981224954e+00 4.4735110386032932e+00 0 0 0
159 1 1.0259726297331055e+01 6.8655749209298191e+00 4.4735110386036157e+00 0 0 0
160 1 1.0881604495769357e+01 8.1222203296920554e+00 4.4735110388062580e+00 0 0 0
161 1 1.0104256747712318e+01 9.2891053526345200e+00 4.4735110390744808e+00 0 0 0
162 1 1.0726134945948425e+01 1.0545750761208849e+01 4.4735110385004742e+00 0 0 0
163 1 9.9487871977035329e+00 1.1712635784240042e+01 4.4735110392327586e+00 0 0 0
164 1 1.0570665395581479e+01 1.2969281193061473e+01 4.4735110376582590e+00 0 0 0
165 1 9.7933176342393864e+00 1.4136166155942194e+01 4.4735110387773247e+00 0 0 0
166 1 1.0415195264482968e+01 1.5392812127291585e+01 4.4735110370363902e+00 0 0 0
167 1 1.2747239739963831e+01 9.4138895620395002e-01 4.4735110389672945e+00 0 0 0
168 1 1.3369117304373530e+01 2.1980348907477367e+00 4.4735110384956025e+00 0 0 0
169 1 1.2591769542330232e+01 3.3649198526588120e+00 4.4735110390716137e+00 0 0 0
170 1 1.3213647741325952e+01 4.6215652618441787e+00 4.4735110387366381e+00 0 0 0
171 1 1.2436299992455401e+01 5.7884502845967898e+00 4.4735110388059214e+00 0 0 0
172 1 1.3058178191591347e+01 7.0450956934577968e+00 4.4735110390739798e+00 0 0 0
173 1 1.2280830443214374e+01 8.2119807164070249e+00 4.4735110387368655e+00 0 0 0
174 1 1.2902708641778721e+01 9.4686261250216344e+00 4.4735110391057757e+00 0 0 0
175 1 1.2125360893508736e+01 1.0635511148112110e+01 4.4735110389754045e+00 0 0 0
176 1 1.2747239091371656e+01 1.1892156556695836e+01 4.4735110384166932e+00 0 0 0
177 1 1.1969891343327587e+01 1.3059041579761358e+01 4.4735110389397095e+00 0 0 0
178 1 1.2591769527408792e+01 1.4315687056073758e+01 4.4735110376058298e+00 0 0 0
179 1 1.1814421273425150e+01 1.5482571619170276e+01 4.4735110387074029e+00 0 0 0
180 1 1.5545691507240010e+01 1.1209105871113050e+00 4.4735110376479472e+00 0 0 0
181 1 1.4768343252305266e+01 2.2877951485475321e+00 4.4735110392261435e+00 0 0 0
182 1 1.5390221437320228e+01 3.5444406259555072e+00 4.4735110380870884e+00 0 0 0
183 1 1.4612873688021935e+01 4.7113256481203187e+00 4.4735110391050572e+00 0 0 0
184 1 1.5234751887176980e+01 5.9679710572421607e+00 4.4735110389748893e+00 0 0 0
185 1 1.4457404138083438e+01 7.1348560800121081e+00 4.4735110384998915e+00 0 0 0
186 1 1.5079282337198556e+01 8.3915014890797295e+00 4.4735110392315374e+00 0 0 0
187 1 1.4301934588923624e+01 9.5583865124100598e+00 4.4735110380880787e+00 0 0 0
188 1 1.4923812787342518e+01 1.0815031920913754e+01 4.4735110390264925e+00 0 0 0
189 1 1.4146465039184880e+01 1.1981916944169937e+01 4.4735110381361816e+00 0 0 0
190 1 1.4768343237674417e+01 1.3238562352200196e+01 4.4735110383783203e+00 0 0 0
191 1 1.3990995475978325e+01 1.4405447315065249e+01 4.4735110383790095e+00 0 0 0
192 1 1.4612873040397059e+01 1.5662093247925016e+01 4.4735110381305621e+00 0 0 0
193 1 1.6944917515161627e+01 1.2106700776051162e+00 4.4735110387742081e+00 0 0 0
194 1 1.7566795146788422e+01 2.4673160498652225e+00 4.4735110375439691e+00 0 0 0
195 1 1.6789447383820516e+01 3.6342010122793518e+00 4.4735110390287787e+00 0 0 0
196 1 1.7411325583213255e+01 4.8908464214259624e+00 4.4735110381371710e+00 0 0 0
197 1 1.6633977833492210e+01 6.0577314441232284e+00 4.4735110384156149e+00 0 0 0
198 1 1.7255856032741953e+01 7.3143768530442097e+00 4.4735110389353192e+00 0 0 0
199 1 1.6478508283685670e+01 8.4812618760751590e+00 4.4735110376538687e+00 0 0 0
200 1 1.7100386483053860e+01 9.7379072845274273e+00 4.4735110387674002e+00 0 0 0
201 1 1.6323038734678924e+01 1.0904792308069888e+01 4.4735110375379366e+00 0 0 0
202 1 1.6944916933333573e+01 1.2161437715941437e+01 4.4735110386907495e+00 0 0 0
203 1 1.6167569185674793e+01 1.3328322739374157e+01 4.4735110375974410e+00 0 0 0
204 1 1.6789447369769221e+01 1.4584968215685858e+01 4.4735110389311323e+00 0 0 0
205 1 1.6012099115289448e+01 1.5751852778480011e+01 4.4735110384059658e+00 0 0 0
206 1 1.9743368900783445e+01 1.3901913786114577e+00 4.4735110370368387e+00 0 0 0
207 1 1.8966021079141242e+01 2.5570763756116439e+00 4.4735110387021901e+00 0 0 0
208 1 1.9587899278901197e+01 3.8137217845267983e+00 4.4735110376028651e+00 0 0 0
209 1 1.8810551529319085e+01 4.9806068074766481e+00 4.4735110383811083e+00 0 0 0
210 1 1.9432429728552194e+01 6.2372522162378479e+00 4.4735110383799910e+00 0 0 0
211 1 1.8655081978963402e+01 7.4041372392244469e+00 4.4735110375996259e+00 0 0 0
212 1 1.9276960178729688e+01 8.6607826480163990e+00 4.4735110386911838e+00 0 0 0
213 1 1.8499612429448909e+01 9.8276676711503796e+00 4.4735110370186240e+00 0 0 0
214 1 1.9121490628936449e+01 1.1084313079724900e+01 4.4735110384474579e+00 0 0 0
215 1 1.8344142881304727e+01 1.2251198102817373e+01 4.4735110370177953e+00 0 0 0
216 1 1.8966021079449391e+01 1.3507843511382703e+01 4.4735110387643315e+00 0 0 0
217 1 1.8188673318089045e+01 1.4674728474208177e+01 4.4735110376498515e+00 0 0 0
218 1 1.8810550881881511e+01 1.5931374407871157e+01 4.4735110392224602e+00 0 0 0
219 1 2.0987125224960998e+01 3.9034821708054093e+00 4.4735110389381747e+00 0 0 0
220 1 2.1609003424035997e+01 5.1601275795677646e+00 4.4735110384156878e+00 0 0 0
221 1 2.0831655674640999e+01 6.3270126022860413e+00 4.4735110381365875e+00 0 0 0
222 1 2.1453533874007590e+01 7.5836580114309591e+00 4.4735110390266870e+00 0 0 0
223 1 2.0676186124824632e+01 8.7505430338592394e+00 4.4735110375380565e+00 0 0 0
224 1 2.1298064324321984e+01 1.0007188443299015e+01 4.4735110387674508e+00 0 0 0
225 1 2.0520716576056500e+01 1.1174073465199058e+01 4.4735110370183300e+00 0 0 0
226 1 2.1142594774745945e+01 1.2430718875216522e+01 4.4735110386895176e+00 0 0 0
227 1 2.0365247027327598e+01 1.3597603897225920e+01 4.4735110375348013e+00 0 0 0
228 1 2.0987125211133083e+01 1.4854249374991410e+01 4.4735110390199155e+00 0 0 0
229 1 2.0209776956598567e+01 1.6021133936855168e+01 4.4735110380782253e+00 0 0 0
230 1 2.2852759820394667e+01 7.6734183979132000e+00 4.4735110380878993e+00 0 0 0
231 1 2.3474638019570598e+01 8.9300638069865492e+00 4.4735110392315036e+00 0 0 0
232 1 2.2697290271259362e+01 1.0096948828804461e+01 4.4735110376535774e+00 0 0 0
233 1 2.3319168469972070e+01 1.1353594238605176e+01 4.4735110389346868e+00 0 0 0
234 1 2.2541820722194309e+01 1.2520479260546496e+01 4.4735110375977465e+00 0 0 0
235 1 2.3163698920623276e+01 1.3777124670802250e+01 4.4735110383764898e+00 0 0 0
236 1 2.2386351159216240e+01 1.4944009632620345e+01 4.4735110381305843e+00 0 0 0
237 1 2.3008228723258092e+01 1.6200655567671063e+01 4.4735110384066790e+00 0 0 0
238 1 2.4718394417136373e+01 1.1443354624579483e+01 4.4735110384149035e+00 0 0 0
239 1 2.5340272615048761e+01 1.2700000034604416e+01 4.4735110381353032e+00 0 0 0
240 1 2.4562924867780474e+01 1.3866885056544890e+01 4.4735110383751060e+00 0 0 0
241 1 2.5184803051744431e+01 1.5123530534848976e+01 4.4735110375964329e+00 0 0 0
242 1 2.4407454797609574e+01 1.6290415096590010e+01 4.4735110389284678e+00 0 0 0
243 1 2.6584028940647755e+01 1.5213290826068057e+01 4.4735110386965129e+00 0 0 0
244 1 2.7205905261020945e+01 1.6469936653917202e+01 4.4735110370332807e+00 0 0 0

Velocities

1 0.0000000000000000e+00 0.0000000000000000e+00 0.0000000000000000e+00
2 0.0000000000000000e+00 0.0000000000000000e+00 0.0000000000000000e+00
3 0.0000000000000000e+00 0.0000000000000000e+00 0.0000000000000000e+00
4 0.0000000000000000e+00 0.0000000000000000e+00 0.0000000000000000e+00
5 0.0000000000000000e+00 0.0000000000000000e+00 0.0000000000000000e+00
6 0.0000000000000000e+00 0.0000000000000000e+00 0.0000000000000000e+00
7 0.0000000000000000e+00 0.0000000000000000e+00 0.0000000000000000e+00
8 0.0000000000000000e+00 0.0000000000000000e+00 0.0000000000000000e+00
9 0.0000000000000000e+00 0.0000000000000000e+00 0.0000000000000000e+00
10 0.0000000000000000e+00 0.0000000000000000e+00 0.0000000000000000e+00
11 0.0000000000000000e+00 0.0000000000000000e+00 0.0000000000000000e+00
12 0.0000000000000000e+00 0.0000000000000000e+00 0.0000000000000000e+00
13 0.0000000000000000e+00 0.0000000000000000e+00 0.0000000000000000e+00
14 0.0000000000000000e+00 0.0000000000000000e+00 0.0000000000000000e+00
15 0.0000000000000000e+00 0.0000000000000000e+00 0.0000000000000000e+00
16 0.0000000000000000e+00 0.0000000000000000e+00 0.0000000000000000e+00
17 0.0000000000000000e+00 0.0000000000000000e+00 0.0000000000000000e+00
18 0.0000000000000000e+00 0.0000000000000000e+00 0.0000000000000000e+00
19 0.0000000000000000e+00 0.0000000000000000e+00 0.0000000000000000e+00
20 0.0000000000000000e+00 0.0000000000000000e+00 0.0000000000000000e+00
21 0.0000000000000000e+00 0.0000000000000000e+00 0.0000000000000000e+00
22 0.0000000000000000e+00 0.0000000000000000e+00 0.0000000000000000e+00
23 0.0000000000000000e+00 0.0000000000000000e+00 0.0000000000000000e+00
24 0.0000000000000000e+00 0.0000000000000000e+00 0.0000000000000000e+00
25 0.0000000000000000e+00 0.0000000000000000e+00 0.0000000000000000e+00
26 0.0000000000000000e+00 0.0000000000000000e+00 0.0000000000000000e+00
27 0.0000000000000000e+00 0.0000000000000000e+00 0.0000000000000000e+00
28 0.0000000000000000e+00 0.0000000000000000e+00 0.0000000000000000e+00
29 0.0000000000000000e+00 0.0000000000000000e+00 0.0000000000000000e+00
30 0.0000000000000000e+00 0.0000000000000000e+00 0.0000000000000000e+00
31 0.0000000000000000e+00 0.0000000000000000e+00 0.0000000000000000e+00
32 0.0000000000000000e+00 0.0000000000000000e+00 0.0000000000000000e+00
33 0.0000000000000000e+00 0.0000000000000000e+00 0.0000000000000000e+00
34 0.0000000000000000e+00 0.0000000000000000e+00 0.0000000000000000e+00
35 0.0000000000000000e+00 0.0000000000000000e+00 0.0000000000000000e+00
36 0.0000000000000000e+00 0.0000000000000000e+00 0.0000000000000000e+00
37 0.0000000000000000e+00 0.0000000000000000e+00 0.0000000000000000e+00
38 0.0000000000000000e+00 0.0000000000000000e+00 0.0000000000000000e+00
39 0.0000000000000000e+00 0.0000000000000000e+00 0.0000000000000000e+00
40 0.0000000000000000e+00 0.0000000000000000e+00 0.0000000000000000e+00
41 0.0000000000000000e+00 0.0000000000000000e+00 0.0000000000000000e+00
42 0.0000000000000000e+00 0.0000000000000000e+00 0.0000000000000000e+00
43 0.0000000000000000e+00 0.0000000000000000e+00 0.0000000000000000e+00
44 0.0000000000000000e+00 0.0000000000000000e+00 0.0000000000000000e+00
45 0.0000000000000000e+00 0.0000000000000000e+00 0.0000000000000000e+00
46 0.0000000000000000e+00 0.0000000000000000e+00 0.0000000000000000e+00
47 0.0000000000000000e+00 0.0000000000000000e+00 0.0000000000000000e+00
48 0.0000000000000000e+00 0.0000000000000000e+00 0.0000000000000000e+00
49 0.0000000000000000e+00 0.0000000000000000e+00 0.0000000000000000e+00
50 0.0000000000000000e+00 0.0000000000000000e+00 0.0000000000000000e+00
51 0.0000000000000000e+00 0.0000000000000000e+00 0.0000000000000000e+00
52 0.0000000000000000e+00 0.0000000000000000e+00 0.0000000000000000e+00
53 0.0000000000000000e+00 0.0000000000000000e+00 0.0000000000000000e+00
54 0.0000000000000000e+00 0.0000000000000000e+00 0.0000000000000000e+00
55 0.0000000000000000e+00 0.0000000000000000e+00 0.0000000000000000e+00
56 0.0000000000000000e+00 0.0000000000000000e+00 0.0000000000000000e+00
57 0.0000000000000000e+00 0.0000000000000000e+00 0.0000000000000000e+00
58 0.0000000000000000e+00 0.0000000000000000e+00 0.0000000000000000e+00
59 0.0000000000000000e+00 0.0000000000000000e+00 0.0000000000000000e+00
60 0.0000000000000000e+00 0.0000000000000000e+00 0.0000000000000000e+00
61 0.0000000000000000e+00 0.0000000000000000e+00 0.0000000000000000e+00
62 0.0000000000000000e+00 0.0000000000000000e+00 0.0000000000000000e+00
63 0.0000000000000000e+00 0.0000000000000000e+00 0.0000000000000000e+00
64 0.0000000000000000e+00 0.0000000000000000e+00 0.0000000000000000e+00
65 0.0000000000000000e+00 0.0000000000000000e+00 0.0000000000000000e+00
66 0.0000000000000000e+00 0.0000000000000000e+00 0.0000000000000000e+00
67 0.0000000000000000e+00 0.0000000000000000e+00 0.0000000000000000e+00
68 0.0000000000000000e+00 0.0000000000000000e+00 0.0000000000000000e+00
69 0.0000000000000000e+00 0.0000000000000000e+00 0.0000000000000000e+00
70 0.0000000000000000e+00 0.0000000000000000e+00 0.0000000000000000e+00
71 0.0000000000000000e+00 0.0000000000000000e+00 0.0000000000000000e+00
72 0.0000000000000000e+00 0.0000000000000000e+00 0.0000000000000000e+00
73 0.0000000000000000e+00 0.0000000000000000e+00 0.0000000000000000e+00
74 0.0000000000000000e+00 0.0000000000000000e+00 0.0000000000000000e+00
75 0.0000000000000000e+00 0.0000000000000000e+00 0.0000000000000000e+00
76 0.0000000000000000e+00 0.0000000000000000e+00 0.0000000000000000e+00
77 0.0000000000000000e+00 0.0000000000000000e+00 0.0000000000000000e+00
78 0.0000000000000000e+00 0.0000000000000000e+00 0.0000000000000000e+00
79 0.0000000000000000e+00 0.0000000000000000e+00 0.0000000000000000e+00
80 0.0000000000000000e+00 0.0000000000000000e+00 0.0000000000000000e+00
81 0.0000000000000000e+00 0.0000000000000000e+00 0.0000000000000000e+00
82 0.0000000000000000e+00 0.0000000000000000e+00 0.0000000000000000e+00
83 0.0000000000000000e+00 0.0000000000000000e+00 0.0000000000000000e+00
84 0.0000000000000000e+00 0.0000000000000000e+00 0.0000000000000000e+00
85 0.0000000000000000e+00 0.0000000000000000e+00 0.0000000000000000e+00
86 0.0000000000000000e+00 0.0000000000000000e+00 0.0000000000000000e+00
87 0.0000000000000000e+00 0.0000000000000000e+00 0.0000000000000000e+00
88 0.0000000000000000e+00 0.0000000000000000e+00 0.0000000000000000e+00
89 0.0000000000000000e+00 0.0000000000000000e+00 0.0000000000000000e+00
90 0.0000000000000000e+00 0.0000000000000000e+00 0.0000000000000000e+00
91 0.0000000000000000e+00 0.0000000000000000e+00 0.0000000000000000e+00
92 0.0000000000000000e+00 0.0000000000000000e+00 0.0000000000000000e+00
93 0.0000000000000000e+00 0.0000000000000000e+00 0.0000000000000000e+00
94 0.0000000000000000e+00 0.0000000000000000e+00 0.0000000000000000e+00
95 0.0000000000000000e+00 0.0000000000000000e+00 0.0000000000000000e+00
96 0.0000000000000000e+00 0.0000000000000000e+00 0.0000000000000000e+00
97 0.0000000000000000e+00 0.0000000000000000e+00 0.0000000000000000e+00
98 0.0000000000000000e+00 0.0000000000000000e+00 0.0000000000000000e+00
99 0.0000000000000000e+00 0.0000000000000000e+00 0.0000000000000000e+00
100 0.0000000000000000e+00 0.0000000000000000e+00 0.0000000000000000e+00
101 0.0000000000000000e+00 0.0000000000000000e+00 0.0000000000000000e+00
102 0.0000000000000000e+00 0.0000000000000000e+00 0.0000000000000000e+00
103 0.0000000000000000e+00 0.0000000000000000e+00 0.0000000000000000e+00
104 0.0000000000000000e+00 0.0000000000000000e+00 0.0000000000000000e+00
105 0.0000000000000000e+00 0.0000000000000000e+00 0.0000000000000000e+00
106 0.0000000000000000e+00 0.0000000000000000e+00 0.0000000000000000e+00
107 0.0000000000000000e+00 0.0000000000000000e+00 0.0000000000000000e+00
108 0.0000000000000000e+00 0.0000000000000000e+00 0.0000000000000000e+00
109 0.0000000000000000e+00 0.0000000000000000e+00 0.0000000000000000e+00
110 0.0000000000000000e+00 0.0000000000000000e+00 0.0000000000000000e+00
111 0.0000000000000000e+00 0.0000000000000000e+00 0.0000000000000000e+00
112 0.0000000000000000e+00 0.0000000000000000e+00 0.0000000000000000e+00
113 0.0000000000000000e+00 0.0000000000000000e+00 0.0000000000000000e+00
114 0.0000000000000000e+00 0.0000000000000000e+00 0.0000000000000000e+00
115 0.0000000000000000e+00 0.0000000000000000e+00 0.0000000000000000e+00
116 0.0000000000000000e+00 0.0000000000000000e+00 0.0000000000000000e+00
117 0.0000000000000000e+00 0.0000000000000000e+00 0.0000000000000000e+00
118 0.0000000000000000e+00 0.0000000000000000e+00 0.0000000000000000e+00
119 0.0000000000000000e+00 0.0000000000000000e+00 0.0000000000000000e+00
120 0.0000000000000000e+00 0.0000000000000000e+00 0.0000000000000000e+00
121 0.0000000000000000e+00 0.0000000000000000e+00 0.0000000000000000e+00
122 0.0000000000000000e+00 0.0000000000000000e+00 0.0000000000000000e+00
123 0.0000000000000000e+00 0.0000000000000000e+00 0.0000000000000000e+00
124 0.0000000000000000e+00 0.0000000000000000e+00 0.0000000000000000e+00
125 0.0000000000000000e+00 0.0000000000000000e+00 0.0000000000000000e+00
126 0.0000000000000000e+00 0.0000000000000000e+00 0.0000000000000000e+00
127 0.0000000000000000e+00 0.0000000000000000e+00 0.0000000000000000e+00
128 0.0000000000000000e+00 0.0000000000000000e+00 0.0000000000000000e+00
129 0.0000000000000000e+00 0.0000000000000000e+00 0.0000000000000000e+00
130 0.0000000000000000e+00 0.0000000000000000e+00 0.0000000000000000e+00
131 0.0000000000000000e+00 0.0000000000000000e+00 0.0000000000000000e+00
132 0.0000000000000000e+00 0.0000000000000000e+00 0.0000000000000000e+00
133 0.0000000000000000e+00 0.0000000000000000e+00 0.0000000000000000e+00
134 0.0000000000000000e+00 0.0000000000000000e+00 0.0000000000000000e+00
135 0.0000000000000000e+00 0.0000000000000000e+00 0.0000000000000000e+00
136 0.0000000000000000e+00 0.0000000000000000e+00 0.0000000000000000e+00
137 0.0000000000000000e+00 0.0000000000000000e+00 0.0000000000000000e+00