LAMMPS data file via write_data, version 3 Mar 2020, timestep = 16

76 atoms
1 atom types

8.6062104000000028e-02 1.0671700895999994e+01 xlo xhi
7.4531968000000032e-02 9.2419640319999985e+00 ylo yhi
1.9999999999999990e-01 2.4800000000000011e+01 zlo zhi
5.2919519999999984e+00 0.0000000000000000e+00 0.0000000000000000e+00 xy xz yz

Masses

1 12.0107

Atoms # atomic

1 1 8.6068697684962975e-02 7.4533148484275030e-02 2.0000308714427906e-01 0 0 0
2 1 1.7574787365239350e+00 2.3261816893343710e+00 2.0000308804323266e-01 0 0 0
3 1 2.3146196626337465e+00 1.0395265298117740e+00 2.0000308468685371e-01 0 0 0
4 1 3.7074662998872840e+00 8.7869147258177294e-01 2.0000308596684180e-01 0 0 0
5 1 2.5931869864633859e+00 3.4520068285006107e+00 2.0000308600585417e-01 0 0 0
6 1 3.9860341418304026e+00 3.2911746915502778e+00 2.0000308601879307e-01 0 0 0
7 1 4.2646035726830824e+00 5.7036567326926093e+00 2.0000308601680555e-01 0 0 0
8 1 4.5431730540142778e+00 2.0045178398709012e+00 2.0000308599049690e-01 0 0 0
9 1 5.9360202126808561e+00 1.8436852783609148e+00 2.0000308600704228e-01 0 0 0
10 1 4.8217424362431061e+00 4.4169996453139841e+00 2.0000308602654321e-01 0 0 0
11 1 6.2145895938112492e+00 4.2561675092455289e+00 2.0000308602535344e-01 0 0 0
12 1 5.1003118188155030e+00 6.8294818745126395e+00 2.0000308471183156e-01 0 0 0
13 1 6.4931590265200914e+00 6.6686495523240792e+00 2.0000308803773045e-01 0 0 0
14 1 6.7717218609154388e+00 9.0811304166670404e+00 2.0000309033662886e-01 0 0 0
15 1 6.4931613637087926e+00 5.5702999140517506e-01 2.0000308598202479e-01 0 0 0
16 1 7.8860077708972778e+00 3.9619506070316579e-01 2.0000308805743178e-01 0 0 0
17 1 6.7717284569200888e+00 2.9695104196644007e+00 2.0000308602186978e-01 0 0 0
18 1 8.1645756114348398e+00 2.8086782833415986e+00 2.0000308601140196e-01 0 0 0
19 1 7.0502978867307515e+00 5.3819924608415111e+00 2.0000308600760999e-01 0 0 0
20 1 8.4431450449712564e+00 5.2211603250807803e+00 2.0000308468383532e-01 0 0 0
21 1 7.3288670826959565e+00 7.7944745854801853e+00 2.0000308676680309e-01 0 0 0
22 1 8.7217144260662209e+00 7.6336421311146871e+00 2.0000308674498862e-01 0 0 0
23 1 8.7217145250309454e+00 1.5220214304156128e+00 2.0000308471510891e-01 0 0 0
24 1 1.0114561866837368e+01 1.3611889735822182e+00 2.0000309035160596e-01 0 0 0
25 1 9.0002839097851570e+00 3.9345032352737483e+00 2.0000308803733979e-01 0 0 0
26 1 1.0393131063675407e+01 3.7736710995032428e+00 2.0000308677309869e-01 0 0 0
27 1 9.2788533386491370e+00 6.3469852753663627e+00 2.0000309029742852e-01 0 0 0
28 1 1.0671700495369530e+01 6.1861531423865479e+00 2.0000308709108558e-01 0 0 0
29 1 9.5574211788645620e+00 8.7594684964052920e+00 2.0000308799041364e-01 0 0 0
30 1 1.0950267586709575e+01 8.5986335715098292e+00 2.0000308464985300e-01 0 0 0
31 1 1.0950269929614063e+01 2.4870140119719064e+00 2.0000308679231513e-01 0 0 0
32 1 1.1228839360979082e+01 4.8994960548408679e+00 2.0000309031393987e-01 0 0 0
33 1 1.2621686515493128e+01 4.7386639170314471e+00 2.0000308469226535e-01 0 0 0
34 1 1.1507408736530431e+01 7.3119782847003965e+00 2.0000309029581595e-01 0 0 0
35 1 1.2900255897983689e+01 7.1511457212979916e+00 2.0000308677607995e-01 0 0 0
36 1 1.3457394810498979e+01 5.8644888730419034e+00 2.0000308804362338e-01 0 0 0
37 1 1.3735962652057763e+01 8.2769720902760096e+00 2.0000308679632806e-01 0 0 0
38 1 1.5128809292712191e+01 8.1161370308111085e+00 2.0000309034619157e-01 0 0 0
39 1 5.3780207249858165e+00 9.2419628581347997e+00 4.4735089129395984e+00 0 -1 0
40 1 2.8717580032823156e+00 3.9619741382439577e-01 4.4735089119862446e+00 0 0 0
41 1 2.0360481727961104e+00 1.5220209566736631e+00 4.4735089153354268e+00 0 0 0
42 1 2.5931869860570878e+00 2.8086782840959388e+00 4.4735089139960404e+00 0 0 0
43 1 4.2646059110312393e+00 5.5702677146828661e-01 4.4735089139667252e+00 0 0 0
44 1 4.8217424844347647e+00 1.8436856530929500e+00 4.4735089139518518e+00 0 0 0
45 1 3.9860341417763250e+00 2.9695104192103634e+00 4.4735089139666133e+00 0 0 0
46 1 4.5431730051857944e+00 4.2561675094049738e+00 4.4735089139700710e+00 0 0 0
47 1 3.7074647101338734e+00 5.3819924604512845e+00 4.4735089139921902e+00 0 0 0
48 1 4.2646035702697525e+00 6.6686495549246834e+00 4.4735089119664559e+00 0 0 0
49 1 7.0502994720087244e+00 8.7869382683304353e-01 4.4735089139515400e+00 0 0 0
50 1 6.2145896444905686e+00 2.0045173643929939e+00 4.4735089139352793e+00 0 0 0
51 1 6.7717284569544836e+00 3.2911746912441142e+00 4.4735089139635260e+00 0 0 0
52 1 5.9360201628445814e+00 4.4169996453016216e+00 4.4735089139712665e+00 0 0 0
53 1 6.4931590247715567e+00 5.7036567331950501e+00 4.4735089140014299e+00 0 0 0
54 1 5.6574506824822031e+00 6.8294815007469420e+00 4.4735089153321219e+00 0 0 0
55 1 6.2145874845948601e+00 8.1161405121405235e+00 4.4735089097187535e+00 0 0 0
56 1 8.4431471510320968e+00 1.0395230485164022e+00 4.4735089153071579e+00 0 0 0
57 1 9.0002839574766007e+00 2.3261820624534693e+00 4.4735089119719227e+00 0 0 0
58 1 8.1645756114939427e+00 3.4520068271314748e+00 4.4735089139904316e+00 0 0 0
59 1 8.7217144755907121e+00 4.7386639178202854e+00 4.4735089153123253e+00 0 0 0
60 1 7.8860061823543992e+00 5.8644888732763603e+00 4.4735089119722096e+00 0 0 0
61 1 8.4431449931506872e+00 7.1511461966771286e+00 4.4735089132414396e+00 0 0 0
62 1 7.6074351657612382e+00 8.2769697360132852e+00 4.4735089132618588e+00 0 0 0
63 1 1.1228839599057300e+01 1.3611891386243726e+00 4.4735089097241563e+00 0 0 0
64 1 1.0393131064258831e+01 2.4870140102472655e+00 4.4735089132577670e+00 0 0 0
65 1 1.0950269926984840e+01 3.7736710994198024e+00 4.4735089132383994e+00 0 0 0
66 1 1.0114561629537263e+01 4.8994960547786306e+00 4.4735089096861049e+00 0 0 0
67 1 1.0671700495371597e+01 6.1861531429860808e+00 4.4735089128859027e+00 0 0 0
68 1 9.8359921559378414e+00 7.3119779099705609e+00 4.4735089096680420e+00 0 0 0
69 1 1.0393128728152407e+01 8.5986367914505468e+00 4.4735089152700311e+00 0 0 0
70 1 1.2343117081550627e+01 3.9345032342109092e+00 4.4735089119658946e+00 0 0 0
71 1 1.2900255947672440e+01 5.2211603255184373e+00 4.4735089153038956e+00 0 0 0
72 1 1.2064547652430985e+01 6.3469852756491738e+00 4.4735089096696345e+00 0 0 0
73 1 1.2621686463713324e+01 7.6336426047593822e+00 4.4735089132104040e+00 0 0 0
74 1 1.1785976636412663e+01 8.7594661432427117e+00 4.4735089119190787e+00 0 0 0
75 1 1.4014533436582965e+01 7.7944744211116719e+00 4.4735089132323473e+00 0 0 0
76 1 1.4571665912300569e+01 9.0811327703167191e+00 4.4735089097092500e+00 0 0 0

Velocities

1 0.0000000000000000e+00 0.0000000000000000e+00 0.0000000000000000e+00
2 0.0000000000000000e+00 0.0000000000000000e+00 0.0000000000000000e+00
3 0.0000000000000000e+00 0.0000000000000000e+00 0.0000000000000000e+00
4 0.0000000000000000e+00 0.0000000000000000e+00 0.0000000000000000e+00
5 0.0000000000000000e+00 0.0000000000000000e+00 0.0000000000000000e+00
6 0.0000000000000000e+00 0.0000000000000000e+00 0.0000000000000000e+00
7 0.0000000000000000e+00 0.0000000000000000e+00 0.0000000000000000e+00
8 0.0000000000000000e+00 0.0000000000000000e+00 0.0000000000000000e+00
9 0.0000000000000000e+00 0.0000000000000000e+00 0.0000000000000000e+00
10 0.0000000000000000e+00 0.0000000000000000e+00 0.0000000000000000e+00
11 0.0000000000000000e+00 0.0000000000000000e+00 0.0000000000000000e+00
12 0.0000000000000000e+00 0.0000000000000000e+00 0.0000000000000000e+00
13 0.0000000000000000e+00 0.0000000000000000e+00 0.0000000000000000e+00
14 0.0000000000000000e+00 0.0000000000000000e+00 0.0000000000000000e+00
15 0.0000000000000000e+00 0.0000000000000000e+00 0.0000000000000000e+00
16 0.0000000000000000e+00 0.0000000000000000e+00 0.0000000000000000e+00
17 0.0000000000000000e+00 0.0000000000000000e+00 0.0000000000000000e+00
18 0.0000000000000000e+00 0.0000000000000000e+00 0.0000000000000000e+00
19 0.0000000000000000e+00 0.0000000000000000e+00 0.0000000000000000e+00
20 0.0000000000000000e+00 0.0000000000000000e+00 0.0000000000000000e+00
21 0.0000000000000000e+00 0.0000000000000000e+00 0.0000000000000000e+00
22 0.0000000000000000e+00 0.0000000000000000e+00 0.0000000000000000e+00
23 0.0000000000000000e+00 0.0000000000000000e+00 0.0000000000000000e+00
24 0.0000000000000000e+00 0.0000000000000000e+00 0.0000000000000000e+00
25 0.0000000000000000e+00 0.0000000000000000e+00 0.0000000000000000e+00
26 0.0000000000000000e+00 0.0000000000000000e+00 0.0000000000000000e+00
27 0.0000000000000000e+00 0.0000000000000000e+00 0.0000000000000000e+00
28 0.0000000000000000e+00 0.0000000000000000e+00 0.0000000000000000e+00
29 0.0000000000000000e+00 0.0000000000000000e+00 0.0000000000000000e+00
30 0.0000000000000000e+00 0.0000000000000000e+00 0.0000000000000000e+00
31 0.0000000000000000e+00 0.0000000000000000e+00 0.0000000000000000e+00
32 0.0000000000000000e+00 0.0000000000000000e+00 0.0000000000000000e+00
33 0.0000000000000000e+00 0.0000000000000000e+00 0.0000000000000000e+00
34 0.0000000000000000e+00 0.0000000000000000e+00 0.0000000000000000e+00
35 0.0000000000000000e+00 0.0000000000000000e+00 0.0000000000000000e+00
36 0.0000000000000000e+00 0.0000000000000000e+00 0.0000000000000000e+00
37 0.0000000000000000e+00 0.0000000000000000e+00 0.0000000000000000e+00
38 0.0000000000000000e+00 0.0000000000000000e+00 0.0000000000000000e+00
39 0.0000000000000000e+00 0.0000000000000000e+00 0.0000000000000000e+00
40 0.0000000000000000e+00 0.0000000000000000e+00 0.0000000000000000e+00
41 0.0000000000000000e+00 0.0000000000000000e+00 0.0000000000000000e+00
42 0.0000000000000000e+00 0.0000000000000000e+00 0.0000000000000000e+00
43 0.0000000000000000e+00 0.0000000000000000e+00 0.0000000000000000e+00
44 0.0000000000000000e+00 0.0000000000000000e+00 0.0000000000000000e+00
45 0.0000000000000000e+00 0.0000000000000000e+00 0.0000000000000000e+00
46 0.0000000000000000e+00 0.0000000000000000e+00 0.0000000000000000e+00
47 0.0000000000000000e+00 0.0000000000000000e+00 0.0000000000000000e+00
48 0.0000000000000000e+00 0.0000000000000000e+00 0.0000000000000000e+00
49 0.0000000000000000e+00 0.0000000000000000e+00 0.0000000000000000e+00
50 0.0000000000000000e+00 0.0000000000000000e+00 0.0000000000000000e+00
51 0.0000000000000000e+00 0.0000000000000000e+00 0.0000000000000000e+00
52 0.0000000000000000e+00 0.0000000000000000e+00 0.0000000000000000e+00
53 0.0000000000000000e+00 0.0000000000000000e+00 0.0000000000000000e+00
54 0.0000000000000000e+00 0.0000000000000000e+00 0.0000000000000000e+00
55 0.0000000000000000e+00 0.0000000000000000e+00 0.0000000000000000e+00
56 0.0000000000000000e+00 0.0000000000000000e+00 0.0000000000000000e+00
57 0.0000000000000000e+00 0.0000000000000000e+00 0.0000000000000000e+00
58 0.0000000000000000e+00 0.0000000000000000e+00 0.0000000000000000e+00
59 0.0000000000000000e+00 0.0000000000000000e+00 0.0000000000000000e+00
60 0.0000000000000000e+00 0.0000000000000000e+00 0.0000000000000000e+00
61 0.0000000000000000e+00 0.0000000000000000e+00 0.0000000000000000e+00
62 0.0000000000000000e+00 0.0000000000000000e+00 0.0000000000000000e+00
63 0.0000000000000000e+00 0.0000000000000000e+00 0.0000000000000000e+00
64 0.0000000000000000e+00 0.0000000000000000e+00 0.0000000000000000e+00
65 0.0000000000000000e+00 0.0000000000000000e+00 0.0000000000000000e+00
66 0.0000000000000000e+00 0.0000000000000000e+00 0.0000000000000000e+00
67 0.0000000000000000e+00 0.0000000000000000e+00 0.0000000000000000e+00
68 0.0000000000000000e+00 0.0000000000000000e+00 0.0000000000000000e+00
69 0.0000000000000000e+00 0.0000000000000000e+00 0.0000000000000000e+00
70 0.0000000000000000e+00 0.0000000000000000e+00 0.0000000000000000e+00
71 0.0000000000000000e+00 0.0000000000000000e+00 0.0000000000000000e+00
72 0.0000000000000000e+00 0.0000000000000000e+00 0.0000000000000000e+00
73 0.0000000000000000e+00 0.0000000000000000e+00 0.0000000000000000e+00
74 0.0000000000000000e+00 0.0000000000000000e+00 0.0000000000000000e+00
75 0.0000000000000000e+00 0.0000000000000000e+00 0.0000000000000000e+00
76 0.0000000000000000e+00 0.0000000000000000e+00 0.0000000000000000e+00
