LAMMPS data file via write_data, version 3 Mar 2020, timestep = 16

28 atoms
1 atom types

5.2237711999999971e-02 6.4774762880000072e+00 xlo xhi
4.5239183999999974e-02 5.6096588160000040e+00 ylo yhi
1.9999999999999990e-01 2.4800000000000011e+01 zlo zhi
3.2117760000000026e+00 0.0000000000000000e+00 0.0000000000000000e+00 xy xz yz

Masses

1 12.0107

Atoms # atomic

1 1 5.2255423393354331e-02 4.5241730150532601e-02 2.0000837943215932e-01 0 0 0
2 1 1.8880203741422015e+00 2.1650178051619839e+00 2.0000837397969659e-01 0 0 0
3 1 2.3469720719344123e+00 8.4016106003707991e-01 2.0000837392121842e-01 0 0 0
4 1 3.7238064120340466e+00 5.7518142874885847e-01 2.0000837394296764e-01 0 0 0
5 1 2.8059113409499670e+00 3.2249082102141196e+00 2.0000837397313562e-01 0 0 0
6 1 4.1827483661915803e+00 2.9599353899647620e+00 2.0000837392661819e-01 0 0 0
7 1 4.6416762939352321e+00 5.3446842975533499e+00 2.0000838507698174e-01 0 0 0
8 1 4.6416941577434301e+00 1.6350741411180809e+00 2.0000837395967855e-01 0 0 0
9 1 6.0185314828082577e+00 1.3701008998328934e+00 2.0000838510040048e-01 0 0 0
10 1 5.1006390332030067e+00 4.0198251055655456e+00 2.0000838504672003e-01 0 0 0
11 1 6.4774763670792073e+00 3.7548518798444186e+00 2.0000837940197785e-01 0 0 0
12 1 6.9364221599961002e+00 2.4299906364497397e+00 2.0000838509386981e-01 0 0 0
13 1 7.3953641057906392e+00 4.8147445931099870e+00 2.0000838508958449e-01 0 0 0
14 1 8.7721984581596111e+00 4.5497649519369405e+00 2.0000838508102847e-01 0 0 0
15 1 3.2640314805405111e+00 5.6096563197834861e+00 4.4735036206200487e+00 0 -1 0
16 1 2.8059151468073202e+00 5.7518648026153141e-01 4.4735036260183954e+00 0 0 0
17 1 1.8880203884537747e+00 1.6350728283955989e+00 4.4735036260352503e+00 0 0 0
18 1 2.3469658536894795e+00 2.9599353971903777e+00 4.4735036260022571e+00 0 0 0
19 1 4.1827545661814511e+00 8.4015163474140830e-01 4.4735036259965719e+00 0 0 0
20 1 4.6416941440624493e+00 2.1650186807029184e+00 4.4735036260553134e+00 0 0 0
21 1 3.7238026091189709e+00 3.2249073356463085e+00 4.4735036260487382e+00 0 0 0
22 1 4.1827421731280747e+00 4.5497743772734784e+00 4.4735036149340583e+00 0 0 0
23 1 6.9364227503939500e+00 1.3701012847081240e+00 4.4735036149534979e+00 0 0 0
24 1 6.0185308903631753e+00 2.4299906277483982e+00 4.4735036149471581e+00 0 0 0
25 1 6.4774763613996633e+00 3.7548531930617091e+00 4.4735036205901757e+00 0 0 0
26 1 5.5595816071522499e+00 4.8147395417186143e+00 4.4735036149426266e+00 0 0 0
27 1 7.8543128065160648e+00 4.0198247198365031e+00 4.4735036148998706e+00 0 0 0
28 1 8.3132412695538420e+00 5.3446893406339511e+00 4.4735036149300376e+00 0 0 0

Velocities

1 0.0000000000000000e+00 0.0000000000000000e+00 0.0000000000000000e+00
2 0.0000000000000000e+00 0.0000000000000000e+00 0.0000000000000000e+00
3 0.0000000000000000e+00 0.0000000000000000e+00 0.0000000000000000e+00
4 0.0000000000000000e+00 0.0000000000000000e+00 0.0000000000000000e+00
5 0.0000000000000000e+00 0.0000000000000000e+00 0.0000000000000000e+00
6 0.0000000000000000e+00 0.0000000000000000e+00 0.0000000000000000e+00
7 0.0000000000000000e+00 0.0000000000000000e+00 0.0000000000000000e+00
8 0.0000000000000000e+00 0.0000000000000000e+00 0.0000000000000000e+00
9 0.0000000000000000e+00 0.0000000000000000e+00 0.0000000000000000e+00
10 0.0000000000000000e+00 0.0000000000000000e+00 0.0000000000000000e+00
11 0.0000000000000000e+00 0.0000000000000000e+00 0.0000000000000000e+00
12 0.0000000000000000e+00 0.0000000000000000e+00 0.0000000000000000e+00
13 0.0000000000000000e+00 0.0000000000000000e+00 0.0000000000000000e+00
14 0.0000000000000000e+00 0.0000000000000000e+00 0.0000000000000000e+00
15 0.0000000000000000e+00 0.0000000000000000e+00 0.0000000000000000e+00
16 0.0000000000000000e+00 0.0000000000000000e+00 0.0000000000000000e+00
17 0.0000000000000000e+00 0.0000000000000000e+00 0.0000000000000000e+00
18 0.0000000000000000e+00 0.0000000000000000e+00 0.0000000000000000e+00
19 0.0000000000000000e+00 0.0000000000000000e+00 0.0000000000000000e+00
20 0.0000000000000000e+00 0.0000000000000000e+00 0.0000000000000000e+00
21 0.0000000000000000e+00 0.0000000000000000e+00 0.0000000000000000e+00
22 0.0000000000000000e+00 0.0000000000000000e+00 0.0000000000000000e+00
23 0.0000000000000000e+00 0.0000000000000000e+00 0.0000000000000000e+00
24 0.0000000000000000e+00 0.0000000000000000e+00 0.0000000000000000e+00
25 0.0000000000000000e+00 0.0000000000000000e+00 0.0000000000000000e+00
26 0.0000000000000000e+00 0.0000000000000000e+00 0.0000000000000000e+00
27 0.0000000000000000e+00 0.0000000000000000e+00 0.0000000000000000e+00
28 0.0000000000000000e+00 0.0000000000000000e+00 0.0000000000000000e+00
